LAMMPS data file via write_data, version 29 Sep 2021, timestep = 50000

80 atoms
3 atom types

-100 100 xlo xhi
-100 100 ylo yhi
-100 100 zlo zhi

Masses

1 12.01
2 12.01
3 55.845

Atoms # atomic

13 3 -0.6065361673316089 -3.9937872971579007 -4.434628932032801 0 0 0
54 3 1.0268714872638003 -4.375150042486729 -2.0825255289097115 0 0 0
69 3 -2.7298632014438 -2.488486944780526 -4.127340424747806 0 0 0
43 3 -0.26476099700983813 -1.7818473633757963 -5.6373117209277765 0 0 0
59 3 -0.48860169893726607 -1.8930847048929536 -3.3628609056467424 0 0 0
53 3 2.9372620446899886 0.5153945666152359 -5.3343493402771305 0 0 0
44 3 1.4723587781011984 -2.3510767515186566 -4.1849740972216445 0 0 0
29 3 -1.6405741710321877 0.4253197149207491 -3.364581639240026 0 0 0
16 3 -0.7556217126954067 2.8534199101375486 -4.323777630762257 0 0 0
20 3 0.4102379846919476 0.5582246190056829 -4.594759236597809 0 0 0
5 3 3.198506924437301 3.8957808168447716 -4.11799542563004 0 0 0
6 3 0.8776864654064932 4.304250861265384 -3.3009992791979834 0 0 0
27 3 -0.8037648359657464 -2.826273764895704 -1.2530734625516855 0 0 0
63 3 -2.092314574726614 -4.461807329321429 -2.705010360273123 0 0 0
70 3 -2.790387981834559 -4.014356626201605 0.02950785649889082 0 0 0
73 3 2.58642039355408 -4.323961379935703 -0.3149989696795643 0 0 0
8 3 3.035440715127318 -2.7591331909663888 -2.8883482695852414 0 0 0
76 3 -4.162892810704946 -2.3436135738130734 -0.3833827007442061 0 0 0
25 3 -2.3246379909813872 -1.4300766476532627 -1.9894820025596076 0 0 0
72 3 -2.065534486332614 -1.2943943379531655 0.5952444382966928 0 0 0
50 3 -0.28255327421189524 -0.16148891317183356 -1.6095156819695655 0 0 0
36 3 1.4341563738737433 -2.3346357645102445 -1.2332057734781134 0 0 0
15 3 3.6968478504211206 -0.7144776455376176 -3.499870831363529 0 0 0
67 3 2.1311669477758985 -0.1496078314545028 -1.61744047227288 0 0 0
7 3 4.224884489138152 -1.9910219065989994 -0.7255054166446337 0 0 0
68 3 -4.026222859653708 0.5453297132959591 -2.5106681580710064 0 0 0
35 3 -4.35980056653511 -0.22093265924466488 -0.6823543631357208 0 0 0
61 3 -4.504918947435944 2.33136822148161 -0.6542901956722466 0 0 0
80 3 -2.273004555044574 0.9845909923434714 -0.9365968179918144 0 0 0
37 3 -0.17488382109891204 2.3319205092150934 -1.5614815810509215 0 0 0
62 3 -2.09174186771197 3.045034146840871 0.1782673090212388 0 0 0
4 3 1.3619575155347328 1.8326935857772022 -3.2854330808775933 0 0 0
38 3 2.1433495898749793 3.019728288567399 -1.4257522821520514 0 0 0
1 3 3.97365821342734 1.6090855835624227 -3.179973336506074 0 0 0
47 3 5.964041901240776 2.1855953661241805 -0.893775477304068 0 0 0
12 3 4.276253407553809 3.7301740825047087 -1.9732622449395627 0 0 0
79 3 5.654949877856451 -0.05167849150877206 -1.7143209922034173 0 0 0
28 3 -2.2933695398565868 2.725368480855623 -2.4694611453444635 0 0 0
31 3 -1.0961434809505994 4.631504335726006 -2.309570333072691 0 0 0
11 3 2.8243290180963503 5.201378010741036 -2.0087754495738395 0 0 0
9 3 2.9800650069618215 4.0986729594790425 0.3494379820512836 0 0 0
65 3 -4.344079223088982 -4.062774028903599 1.6697532765165484 0 0 0
77 3 -1.8008095396503792 -3.741234642275478 1.8898151364946432 0 0 0
66 3 0.5223145414701676 -3.8666138122022735 0.5941066213174977 0 0 0
75 3 0.3140840539697085 -4.775975743836 3.250100726943977 0 0 0
45 3 2.367138149578813 -4.108295039398604 2.0709748805386434 0 0 0
10 3 4.347824096483536 -2.6223993243521138 2.0158451687704284 0 0 0
74 3 -4.438250750853557 -1.409147550013496 1.9119893694205212 0 0 0
58 3 0.23498378923347077 -1.534213605966477 0.8467860569736737 0 0 0
14 3 -1.9636886729191076 -1.4564430964842543 2.9162141209016514 0 0 0
21 3 2.6692120255126004 -1.0300720376518908 0.7022726005270521 0 0 0
71 3 -5.502248571659619 0.8314412834621385 1.5063682890683954 0 0 0
57 3 -3.109317040806119 1.033776917876914 1.7284082137684804 0 0 0
34 3 -0.19956333966137813 3.078729453518438 1.4507999986699769 0 0 0
52 3 1.6913347773205918 1.0211190842324849 1.2227421121130553 0 0 0
23 3 -0.43211885844932124 1.1433712629613826 0.47013631170406633 0 0 0
32 3 -0.5508245026691493 0.19527302379240224 2.2998819444672445 0 0 0
46 3 3.9227540716923364 1.3884602301215543 -0.8001766720183477 0 0 0
78 3 4.901183997079696 -0.009957035683673142 0.8970681976543935 0 0 0
24 3 4.357573862022756 1.8315247613482504 1.8723949523748424 0 0 0
2 3 -4.249908160167891 3.226367447969138 1.5572901597752573 0 0 0
39 3 -3.0058978913223235 4.810938953101287 -1.0548932320666233 0 0 0
30 3 -1.7772257245789622 4.859909827556084 1.6156125217173851 0 0 0
64 3 0.2438540830869599 4.676826624119199 -0.24025874061591762 0 0 0
3 3 2.226906791744216 2.8152191124564117 2.378181225197125 0 0 0
42 3 -1.361283225415855 -3.5319704841315573 4.161150479782004 0 0 0
17 3 -3.8831630717433487 -3.160163490086355 3.56080831155464 0 0 0
40 3 -4.35129561827956 -1.086272433572296 4.4831850242452544 0 0 0
55 3 -2.6794673241477325 -1.6765017864187712 5.471490126842027 0 0 0
49 3 -0.24708929900449014 -1.2208797500995678 4.5452822932318675 0 0 0
19 3 0.2485336077967612 -2.5745915645448587 2.713797218964885 0 0 0
18 3 3.7376559573325134 -0.4805191134763497 2.9055138918815735 0 0 0
41 3 2.4485489708937083 -2.8352529368664277 4.099380199352458 0 0 0
51 3 1.5848126193519987 -0.511737571663799 2.8524829351781067 0 0 0
22 3 -4.3144386697398645 1.3001262260119313 3.5002228038755767 0 0 0
26 3 -2.6987695237823157 0.3232357817476691 4.813080717132666 0 0 0
48 3 -0.05693968769617463 1.1763649162424639 4.498558108515228 0 0 0
56 3 2.3376873064177257 1.6686783265774725 4.304499928591501 0 0 0
60 3 -1.829914502929477 2.2579248753068786 3.026178678164422 0 0 0
33 3 0.2575750540368008 3.1917853409130963 3.8321520168092738 0 0 0

Velocities

13 -5.920072306502578 -1.3549027802848503 -0.31913120691531316
54 -8.81586529520346 -0.27732381719545063 5.430957349834685
69 1.8716209108413147 -0.6197903274598286 -1.5949357186604893
43 4.205420506546372 -2.1812603965680175 1.8753681542112612
59 -1.4580254694285788 3.491808688853917 2.6171129513631914
53 -3.0995749842582923 -1.8870524981063135 -4.050742054441933
44 -8.067857284049964 -4.032141268797737 2.3271340612429117
29 -0.6986802891958521 -4.789320631687055 1.6294614817895003
16 -1.3604556930163403 1.294235729338959 -0.12408211303668523
20 5.025669660303393 -3.031620898388712 3.3019210675137343
5 -2.672415501244271 1.7693058238421626 6.953739821548465
6 -6.555918136224349 -3.1429535045616017 0.5321454598459295
27 -0.5061022870634476 -9.073862578150425 3.774415474017859
63 7.412385595651578 -0.535233908989637 -4.134910370391759
70 1.3209480352395802 5.460990378117824 -2.9224402932316704
73 0.37127441781779047 -0.03670784415324255 -2.2653894887985886
8 -4.886078242736511 1.1593334833539428 -0.22573046618584097
76 2.6429901802559295 2.243835665434809 -0.16041051271985793
25 2.941082031948566 -0.34778970714987106 -3.2385653636820573
72 4.689915975254465 -1.126868221224487 -2.495108364465129
50 2.7565194562967146 7.746175438836568 1.923211663437264
36 -2.669769214938777 0.4470173525411174 0.11240339305342527
15 -0.5689409543679199 8.166488891055678 8.69841258312751
67 4.961202336392691 -0.30720940186645335 -1.1381052178568496
7 1.4006648657632144 -2.4947554801775684 1.2596766244984237
68 -0.16242388071458477 0.8370233398231277 1.8749995723194979
35 -7.981591200635059 2.1230780124615443 -3.563662955067959
61 0.020786660575062288 -0.5444237642600674 -5.431889425993955
80 -11.167352484645074 5.109148292436307 -0.4041470639161384
37 -4.390736421166102 -4.749784799322138 2.8342849213990626
62 5.428157303248686 4.499149050408203 4.05785128177144
4 3.290828522318545 -2.678805203652651 4.747201931940241
38 -0.7884491400125034 -1.0966516850068446 0.5843440761637341
1 -5.684773712871899 5.652089453912629 -9.677950211706007
47 -10.040244649708685 -2.4742014799128462 5.240742086271421
12 9.996740112410173 -3.9271886617327425 3.133409422252132
79 10.770181953091951 7.555026366978081 2.345690884922598
28 -8.677120631371748 -2.036711485847814 7.3940541744362855
31 -3.3857734477489814 3.098276693446202 -10.445734259860114
11 3.0177212008712684 -0.13802390006048584 -0.2944228277800448
9 -0.9933044763912068 2.01305062984507 0.08075531811591385
65 4.2649377633042755 -0.9512643225723949 -1.0767017315959917
77 -1.059993635492445 -2.1046592387175447 -0.8195065136891174
66 -2.909372211345337 8.047660141223535 -6.296432280694049
75 2.7809743301548155 -4.388490654791511 0.809404206033316
45 2.566395721160594 -1.605530843454083 -0.9408484151587114
10 0.7928127100553543 12.94394253917111 0.27800730791941924
74 2.4954980526686628 -4.244967051743229 6.3440102957967355
58 5.89682342668566 2.925929344770883 -0.24197863424958793
14 2.9862786797559977 -8.34279103014297 2.5272968077165343
21 10.124412909321135 5.239358392147978 3.6078605678112337
71 -3.848877142244545 3.3977126131999302 2.1747926361133274
57 -6.901333085812925 3.595516369722685 2.4469535382494825
34 2.9114526894115285 -4.945615170470018 -3.05090765614285
52 -0.7179767542477797 5.608612619022702 -0.5633275652987006
23 3.28404431562492 0.8178302006691791 -1.8003204015195258
32 -0.4478533565379641 -4.65802764299134 4.034682308187563
46 -3.2039650347972435 4.445831495749042 -1.557877455719093
78 5.92736046704014 -8.201605419373605 5.3652483460880696
24 5.350685380325546 0.8840953776958849 -1.5666640114774686
2 9.259119825574762 -6.592296008466525 -7.38905139770513
39 -1.8443507846957894 -6.308139377279279 -2.0488968224180963
30 -0.525788098848807 2.2478150393139673 -3.1704008911997223
64 4.543982718420804 2.1802599859728287 -5.592144645577694
3 0.7060592445190513 -13.842628636889774 3.131256439988838
42 3.922152794206551 -4.3020001985110135 -5.213158789822309
17 -5.804810246923912 -4.104716737605613 3.061050831217312
40 -1.9382218751531926 0.2658387214294828 4.320657487796857
55 -6.093751069945882 1.3436307846796316 0.16849281472522123
49 -3.1154437081854724 -5.426011215740496 -4.033601807645084
19 -4.937543031642224 5.330780171484373 0.7044629291572302
18 5.142790003919459 14.908082823294295 -7.240722371248973
41 8.75956125319307 -2.530292250180573 -0.6200436221862154
51 -1.4430982046009595 -3.0922001764180918 -7.548226458191112
22 -3.683564639701828 -7.66332063418747 3.8941700435588467
26 -3.8796184382835897 10.487307304361675 0.9062976896042381
48 0.7678322514778774 1.6721704328685392 -1.3724415980173301
56 6.246332144368213 -8.615353958848965 3.870459339328925
60 -4.565697487064552 2.116150707720623 0.31479751396199956
33 -3.38083189699609 3.679936457757193 -6.058583874064488
