# converted from swnt_pos.dat

351 atoms
3 atom types

-50  50 xlo xhi
-50  50 ylo yhi
-50  50 zlo zhi

Masses

1  12.01
2  12.01
3  58.93

Atoms

1 1 5.00000000000000e+00 0.00000000000000e+00 -4.51434700000000e+00
2 1 8.63232400000000e+00 9.52488000000000e-01 -4.41272000000000e+00
3 1 7.21633300000000e+00 1.05644500000000e+00 -4.38899200000000e+00
4 1 6.60068500000000e+00 2.24176500000000e+00 -3.91839500000000e+00
5 1 5.18469400000000e+00 2.33368700000000e+00 -3.86435400000000e+00
6 1 1.28802950000000e+01 6.37661000000000e-01 -4.46908500000000e+00
7 1 1.14643050000000e+01 7.43037000000000e-01 -4.45277700000000e+00
8 1 1.08486570000000e+01 1.95870200000000e+00 -4.06728600000000e+00
9 1 9.43266600000000e+00 2.05422000000000e+00 -4.01988900000000e+00
10 1 8.81701800000000e+00 3.09649600000000e+00 -3.28497200000000e+00
11 1 7.40102800000000e+00 3.17321900000000e+00 -3.21092000000000e+00
12 1 6.78537900000000e+00 3.94459700000000e+00 -2.19533100000000e+00
13 1 5.36938900000000e+00 3.99534800000000e+00 -2.10155200000000e+00
14 1 1.71282670000000e+01 3.19632000000000e-01 -4.50301700000000e+00
15 1 1.57122770000000e+01 4.25899000000000e-01 -4.49421200000000e+00
16 1 1.50966280000000e+01 1.66580700000000e+00 -4.19576200000000e+00
17 1 1.36806380000000e+01 1.76444100000000e+00 -4.15524700000000e+00
18 1 1.30649900000000e+01 2.85613700000000e+00 -3.49597100000000e+00
19 1 1.16489990000000e+01 2.93791000000000e+00 -3.42753700000000e+00
20 1 1.10333510000000e+01 3.77926000000000e+00 -2.46911400000000e+00
21 1 9.61736100000000e+00 3.83652300000000e+00 -2.37916300000000e+00
22 1 9.00171300000000e+00 4.34881400000000e+00 -1.21125800000000e+00
23 1 7.58572200000000e+00 4.37620900000000e+00 -1.10820700000000e+00
24 1 6.97007400000000e+00 4.51151400000000e+00 1.59917000000000e-01
25 1 5.55408300000000e+00 4.50647800000000e+00 2.66429000000000e-01
26 1 2.13762390000000e+01 0.00000000000000e+00 -4.51434700000000e+00
27 1 1.99602480000000e+01 1.06623000000000e-01 -4.51308800000000e+00
28 1 1.93446000000000e+01 1.36455100000000e+00 -4.30317700000000e+00
29 1 1.79286100000000e+01 1.46580600000000e+00 -4.26974700000000e+00
30 1 1.73129620000000e+01 2.60144100000000e+00 -3.68942200000000e+00
31 1 1.58969710000000e+01 2.68785500000000e+00 -3.62695000000000e+00
32 1 1.52813230000000e+01 3.59495300000000e+00 -2.73050200000000e+00
33 1 1.38653320000000e+01 3.65844100000000e+00 -2.64483200000000e+00
34 1 1.32496840000000e+01 4.25213800000000e+00 -1.51613000000000e+00
35 1 1.18336940000000e+01 4.28676100000000e+00 -1.41527700000000e+00
36 1 1.12180460000000e+01 4.51151400000000e+00 -1.59917000000000e-01
37 1 9.80205500000000e+00 4.51403200000000e+00 -5.33150000000000e-02
38 1 9.18640700000000e+00 4.34881400000000e+00 1.21125800000000e+00
39 1 7.77041600000000e+00 4.31899200000000e+00 1.31363400000000e+00
40 1 7.15476800000000e+00 3.77926000000000e+00 2.46911400000000e+00
41 1 5.73877800000000e+00 3.71988800000000e+00 2.55768600000000e+00
42 1 5.12313000000000e+00 2.85613700000000e+00 3.49597100000000e+00
43 1 2.35925720000000e+01 1.05644500000000e+00 -4.38899200000000e+00
44 1 2.21765810000000e+01 1.15981300000000e+00 -4.36281600000000e+00
45 1 2.15609330000000e+01 2.33368700000000e+00 -3.86435400000000e+00
46 1 2.01449430000000e+01 2.42430800000000e+00 -3.80815700000000e+00
47 1 1.95292950000000e+01 3.39260000000000e+00 -2.97818600000000e+00
48 1 1.81133040000000e+01 3.46199500000000e+00 -2.89722600000000e+00
49 1 1.74976560000000e+01 4.13411800000000e+00 -1.81339200000000e+00
50 1 1.60816650000000e+01 4.17579500000000e+00 -1.71524400000000e+00
51 1 1.54660170000000e+01 4.48886800000000e+00 -4.78947000000000e-01
52 1 1.40500270000000e+01 4.49892800000000e+00 -3.72792000000000e-01
53 1 1.34343790000000e+01 4.42366100000000e+00 9.00306000000000e-01
54 1 1.20183880000000e+01 4.40116300000000e+00 1.00453700000000e+00
55 1 1.14027400000000e+01 3.94459700000000e+00 2.19533100000000e+00
56 1 9.98674900000000e+00 3.89164600000000e+00 2.28788600000000e+00
57 1 9.37110100000000e+00 3.09649600000000e+00 3.28497200000000e+00
58 1 7.95511100000000e+00 3.01804500000000e+00 3.35719100000000e+00
59 1 7.33946300000000e+00 1.95870200000000e+00 4.06728600000000e+00
60 1 5.92347200000000e+00 1.86209100000000e+00 4.11241400000000e+00
61 1 5.30782400000000e+00 6.37661000000000e-01 4.46908500000000e+00
62 1 2.78405440000000e+01 7.43037000000000e-01 -4.45277700000000e+00
63 1 2.64245530000000e+01 8.47999000000000e-01 -4.43398500000000e+00
64 1 2.58089050000000e+01 2.05422000000000e+00 -4.01988900000000e+00
65 1 2.43929140000000e+01 2.14859200000000e+00 -3.97025000000000e+00
66 1 2.37772660000000e+01 3.17321900000000e+00 -3.21092000000000e+00
67 1 2.23612760000000e+01 3.24817200000000e+00 -3.13507600000000e+00
68 1 2.17456280000000e+01 3.99534800000000e+00 -2.10155200000000e+00
69 1 2.03296370000000e+01 4.04387000000000e+00 -2.00660100000000e+00
70 1 1.97139890000000e+01 4.44369100000000e+00 -7.95574000000000e-01
71 1 1.82979980000000e+01 4.46124200000000e+00 -6.90397000000000e-01
72 1 1.76823500000000e+01 4.47630400000000e+00 5.84835000000000e-01
73 1 1.62663600000000e+01 4.46124200000000e+00 6.90397000000000e-01
74 1 1.56507120000000e+01 4.09013500000000e+00 1.91053000000000e+00
75 1 1.42347210000000e+01 4.04387000000000e+00 2.00660100000000e+00
76 1 1.36190730000000e+01 3.32131300000000e+00 3.05748400000000e+00
77 1 1.22030830000000e+01 3.24817200000000e+00 3.13507600000000e+00
78 1 1.15874340000000e+01 2.24176500000000e+00 3.91839500000000e+00
79 1 1.01714440000000e+01 2.14859200000000e+00 3.97025000000000e+00
80 1 9.55579600000000e+00 9.52488000000000e-01 4.41272000000000e+00
81 1 8.13980500000000e+00 8.47999000000000e-01 4.43398500000000e+00
82 1 7.52415700000000e+00 -4.25899000000000e-01 4.49421200000000e+00
83 1 6.10816700000000e+00 -5.31928000000000e-01 4.48289900000000e+00
84 1 5.49251800000000e+00 -1.76444100000000e+00 4.15524700000000e+00
85 1 2.86408860000000e+01 1.86209100000000e+00 -4.11241400000000e+00
86 1 2.80252380000000e+01 2.93791000000000e+00 -3.42753700000000e+00
87 1 2.66092480000000e+01 3.01804500000000e+00 -3.35719100000000e+00
88 1 2.59935990000000e+01 3.83652300000000e+00 -2.37916300000000e+00
89 1 2.45776090000000e+01 3.89164600000000e+00 -2.28788600000000e+00
90 1 2.39619610000000e+01 4.37620900000000e+00 -1.10820700000000e+00
91 1 2.25459700000000e+01 4.40116300000000e+00 -1.00453700000000e+00
92 1 2.19303220000000e+01 4.50647800000000e+00 2.66429000000000e-01
93 1 2.05143320000000e+01 4.49892800000000e+00 3.72792000000000e-01
94 1 1.98986830000000e+01 4.21514200000000e+00 1.61613800000000e+00
95 1 1.84826930000000e+01 4.17579500000000e+00 1.71524400000000e+00
96 1 1.78670450000000e+01 3.52945800000000e+00 2.81464900000000e+00
97 1 1.64510540000000e+01 3.46199500000000e+00 2.89722600000000e+00
98 1 1.58354060000000e+01 2.51357500000000e+00 3.74983500000000e+00
99 1 1.44194160000000e+01 2.42430800000000e+00 3.80815700000000e+00
100 1 1.38037680000000e+01 1.26253400000000e+00 4.33420500000000e+00
101 1 1.23877770000000e+01 1.15981300000000e+00 4.36281600000000e+00
102 1 1.17721290000000e+01 -1.06623000000000e-01 4.51308800000000e+00
103 1 1.03561380000000e+01 -2.13187000000000e-01 4.50931000000000e+00
104 1 9.74049000000000e+00 -1.46580600000000e+00 4.26974700000000e+00
105 1 8.32450000000000e+00 -1.56624300000000e+00 4.23393500000000e+00
106 1 7.70885200000000e+00 -2.68785500000000e+00 3.62695000000000e+00
107 1 6.29286100000000e+00 -2.77276900000000e+00 3.56245400000000e+00
108 1 5.67721300000000e+00 -3.65844100000000e+00 2.64483200000000e+00
109 1 2.88255810000000e+01 3.71988800000000e+00 -2.55768600000000e+00
110 1 2.82099330000000e+01 4.28676100000000e+00 -1.41527700000000e+00
111 1 2.67939420000000e+01 4.31899200000000e+00 -1.31363400000000e+00
112 1 2.61782940000000e+01 4.51403200000000e+00 -5.33150000000000e-02
113 1 2.47623030000000e+01 4.51403200000000e+00 5.33150000000000e-02
114 1 2.41466550000000e+01 4.31899200000000e+00 1.31363400000000e+00
115 1 2.27306650000000e+01 4.28676100000000e+00 1.41527700000000e+00
116 1 2.21150170000000e+01 3.71988800000000e+00 2.55768600000000e+00
117 1 2.06990260000000e+01 3.65844100000000e+00 2.64483200000000e+00
118 1 2.00833780000000e+01 2.77276900000000e+00 3.56245400000000e+00
119 1 1.86673870000000e+01 2.68785500000000e+00 3.62695000000000e+00
120 1 1.80517390000000e+01 1.56624300000000e+00 4.23393500000000e+00
121 1 1.66357490000000e+01 1.46580600000000e+00 4.26974700000000e+00
122 1 1.60201010000000e+01 2.13187000000000e-01 4.50931000000000e+00
123 1 1.46041100000000e+01 1.06623000000000e-01 4.51308800000000e+00
124 1 1.39884620000000e+01 -1.15981300000000e+00 4.36281600000000e+00
125 1 1.25724710000000e+01 -1.26253400000000e+00 4.33420500000000e+00
126 1 1.19568230000000e+01 -2.42430800000000e+00 3.80815700000000e+00
127 1 1.05408330000000e+01 -2.51357500000000e+00 3.74983500000000e+00
128 1 9.92518500000000e+00 -3.46199500000000e+00 2.89722600000000e+00
129 1 8.50919400000000e+00 -3.52945800000000e+00 2.81464900000000e+00
130 1 7.89354600000000e+00 -4.17579500000000e+00 1.71524400000000e+00
131 1 6.47755500000000e+00 -4.21514200000000e+00 1.61613800000000e+00
132 1 5.86190700000000e+00 -4.49892800000000e+00 3.72792000000000e-01
133 1 2.90102750000000e+01 4.50647800000000e+00 -2.66429000000000e-01
134 1 2.83946270000000e+01 4.40116300000000e+00 1.00453700000000e+00
135 1 2.69786360000000e+01 4.37620900000000e+00 1.10820700000000e+00
136 1 2.63629880000000e+01 3.89164600000000e+00 2.28788600000000e+00
137 1 2.49469980000000e+01 3.83652300000000e+00 2.37916300000000e+00
138 1 2.43313500000000e+01 3.01804500000000e+00 3.35719100000000e+00
139 1 2.29153590000000e+01 2.93791000000000e+00 3.42753700000000e+00
140 1 2.22997110000000e+01 1.86209100000000e+00 4.11241400000000e+00
141 1 2.08837200000000e+01 1.76444100000000e+00 4.15524700000000e+00
142 1 2.02680720000000e+01 5.31928000000000e-01 4.48289900000000e+00
143 1 1.88520820000000e+01 4.25899000000000e-01 4.49421200000000e+00
144 1 1.82364340000000e+01 -8.47999000000000e-01 4.43398500000000e+00
145 1 1.68204430000000e+01 -9.52488000000000e-01 4.41272000000000e+00
146 1 1.62047950000000e+01 -2.14859200000000e+00 3.97025000000000e+00
147 1 1.47888040000000e+01 -2.24176500000000e+00 3.91839500000000e+00
148 1 1.41731560000000e+01 -3.24817200000000e+00 3.13507600000000e+00
149 1 1.27571660000000e+01 -3.32131300000000e+00 3.05748400000000e+00
150 1 1.21415180000000e+01 -4.04387000000000e+00 2.00660100000000e+00
151 1 1.07255270000000e+01 -4.09013500000000e+00 1.91053000000000e+00
152 1 1.01098790000000e+01 -4.46124200000000e+00 6.90397000000000e-01
153 1 8.69388800000000e+00 -4.47630400000000e+00 5.84835000000000e-01
154 1 8.07824000000000e+00 -4.46124200000000e+00 -6.90397000000000e-01
155 1 6.66225000000000e+00 -4.44369100000000e+00 -7.95574000000000e-01
156 1 6.04660200000000e+00 -4.04387000000000e+00 -2.00660100000000e+00
157 1 2.91949690000000e+01 3.99534800000000e+00 2.10155200000000e+00
158 1 2.85793210000000e+01 3.24817200000000e+00 3.13507600000000e+00
159 1 2.71633310000000e+01 3.17321900000000e+00 3.21092000000000e+00
160 1 2.65476830000000e+01 2.14859200000000e+00 3.97025000000000e+00
161 1 2.51316920000000e+01 2.05422000000000e+00 4.01988900000000e+00
162 1 2.45160440000000e+01 8.47999000000000e-01 4.43398500000000e+00
163 1 2.31000540000000e+01 7.43037000000000e-01 4.45277700000000e+00
164 1 2.24844050000000e+01 -5.31928000000000e-01 4.48289900000000e+00
165 1 2.10684150000000e+01 -6.37661000000000e-01 4.46908500000000e+00
166 1 2.04527670000000e+01 -1.86209100000000e+00 4.11241400000000e+00
167 1 1.90367760000000e+01 -1.95870200000000e+00 4.06728600000000e+00
168 1 1.84211280000000e+01 -3.01804500000000e+00 3.35719100000000e+00
169 1 1.70051380000000e+01 -3.09649600000000e+00 3.28497200000000e+00
170 1 1.63894890000000e+01 -3.89164600000000e+00 2.28788600000000e+00
171 1 1.49734990000000e+01 -3.94459700000000e+00 2.19533100000000e+00
172 1 1.43578510000000e+01 -4.40116300000000e+00 1.00453700000000e+00
173 1 1.29418600000000e+01 -4.42366100000000e+00 9.00306000000000e-01
174 1 1.23262120000000e+01 -4.49892800000000e+00 -3.72792000000000e-01
175 1 1.09102220000000e+01 -4.48886800000000e+00 -4.78947000000000e-01
176 1 1.02945730000000e+01 -4.17579500000000e+00 -1.71524400000000e+00
177 1 8.87858300000000e+00 -4.13411800000000e+00 -1.81339200000000e+00
178 1 8.26293500000000e+00 -3.46199500000000e+00 -2.89722600000000e+00
179 1 6.84694400000000e+00 -3.39260000000000e+00 -2.97818600000000e+00
180 1 6.23129600000000e+00 -2.42430800000000e+00 -3.80815700000000e+00
181 1 2.93796640000000e+01 2.33368700000000e+00 3.86435400000000e+00
182 1 2.87640160000000e+01 1.15981300000000e+00 4.36281600000000e+00
183 1 2.73480250000000e+01 1.05644500000000e+00 4.38899200000000e+00
184 1 2.67323770000000e+01 -2.13187000000000e-01 4.50931000000000e+00
185 1 2.53163870000000e+01 -3.19632000000000e-01 4.50301700000000e+00
186 1 2.47007390000000e+01 -1.56624300000000e+00 4.23393500000000e+00
187 1 2.32847480000000e+01 -1.66580700000000e+00 4.19576200000000e+00
188 1 2.26691000000000e+01 -2.77276900000000e+00 3.56245400000000e+00
189 1 2.12531090000000e+01 -2.85613700000000e+00 3.49597100000000e+00
190 1 2.06374610000000e+01 -3.71988800000000e+00 2.55768600000000e+00
191 1 1.92214710000000e+01 -3.77926000000000e+00 2.46911400000000e+00
192 1 1.86058230000000e+01 -4.31899200000000e+00 1.31363400000000e+00
193 1 1.71898320000000e+01 -4.34881400000000e+00 1.21125800000000e+00
194 1 1.65741840000000e+01 -4.51403200000000e+00 -5.33150000000000e-02
195 1 1.51581930000000e+01 -4.51151400000000e+00 -1.59917000000000e-01
196 1 1.45425450000000e+01 -4.28676100000000e+00 -1.41527700000000e+00
197 1 1.31265550000000e+01 -4.25213800000000e+00 -1.51613000000000e+00
198 1 1.25109070000000e+01 -3.65844100000000e+00 -2.64483200000000e+00
199 1 1.10949160000000e+01 -3.59495300000000e+00 -2.73050200000000e+00
200 1 1.04792680000000e+01 -2.68785500000000e+00 -3.62695000000000e+00
201 1 9.06327700000000e+00 -2.60144100000000e+00 -3.68942200000000e+00
202 1 8.44762900000000e+00 -1.46580600000000e+00 -4.26974700000000e+00
203 1 7.03163900000000e+00 -1.36455100000000e+00 -4.30317700000000e+00
204 1 6.41599100000000e+00 -1.06623000000000e-01 -4.51308800000000e+00
205 1 2.95643580000000e+01 -0.00000000000000e+00 4.51434700000000e+00
206 1 2.89487100000000e+01 -1.26253400000000e+00 4.33420500000000e+00
207 1 2.75327200000000e+01 -1.36455100000000e+00 4.30317700000000e+00
208 1 2.69170720000000e+01 -2.51357500000000e+00 3.74983500000000e+00
209 1 2.55010810000000e+01 -2.60144100000000e+00 3.68942200000000e+00
210 1 2.48854330000000e+01 -3.52945800000000e+00 2.81464900000000e+00
211 1 2.34694420000000e+01 -3.59495300000000e+00 2.73050200000000e+00
212 1 2.28537940000000e+01 -4.21514200000000e+00 1.61613800000000e+00
213 1 2.14378040000000e+01 -4.25213800000000e+00 1.51613000000000e+00
214 1 2.08221560000000e+01 -4.50647800000000e+00 2.66429000000000e-01
215 1 1.94061650000000e+01 -4.51151400000000e+00 1.59917000000000e-01
216 1 1.87905170000000e+01 -4.37620900000000e+00 -1.10820700000000e+00
217 1 1.73745260000000e+01 -4.34881400000000e+00 -1.21125800000000e+00
218 1 1.67588780000000e+01 -3.83652300000000e+00 -2.37916300000000e+00
219 1 1.53428880000000e+01 -3.77926000000000e+00 -2.46911400000000e+00
220 1 1.47272400000000e+01 -2.93791000000000e+00 -3.42753700000000e+00
221 1 1.33112490000000e+01 -2.85613700000000e+00 -3.49597100000000e+00
222 1 1.26956010000000e+01 -1.76444100000000e+00 -4.15524700000000e+00
223 1 1.12796100000000e+01 -1.66580700000000e+00 -4.19576200000000e+00
224 1 1.06639620000000e+01 -4.25899000000000e-01 -4.49421200000000e+00
225 1 9.24797200000000e+00 -3.19632000000000e-01 -4.50301700000000e+00
226 1 2.97490530000000e+01 -2.33368700000000e+00 3.86435400000000e+00
227 1 2.91334050000000e+01 -3.32131300000000e+00 3.05748400000000e+00
228 1 2.77174140000000e+01 -3.39260000000000e+00 2.97818600000000e+00
229 1 2.71017660000000e+01 -4.09013500000000e+00 1.91053000000000e+00
230 1 2.56857750000000e+01 -4.13411800000000e+00 1.81339200000000e+00
231 1 2.50701270000000e+01 -4.47630400000000e+00 5.84835000000000e-01
232 1 2.36541370000000e+01 -4.48886800000000e+00 4.78947000000000e-01
233 1 2.30384890000000e+01 -4.44369100000000e+00 -7.95574000000000e-01
234 1 2.16224980000000e+01 -4.42366100000000e+00 -9.00306000000000e-01
235 1 2.10068500000000e+01 -3.99534800000000e+00 -2.10155200000000e+00
236 1 1.95908590000000e+01 -3.94459700000000e+00 -2.19533100000000e+00
237 1 1.89752110000000e+01 -3.17321900000000e+00 -3.21092000000000e+00
238 1 1.75592210000000e+01 -3.09649600000000e+00 -3.28497200000000e+00
239 1 1.69435730000000e+01 -2.05422000000000e+00 -4.01988900000000e+00
240 1 1.55275820000000e+01 -1.95870200000000e+00 -4.06728600000000e+00
241 1 1.49119340000000e+01 -7.43037000000000e-01 -4.45277700000000e+00
242 1 1.34959430000000e+01 -6.37661000000000e-01 -4.46908500000000e+00
243 1 2.99337470000000e+01 -3.99534800000000e+00 2.10155200000000e+00
244 1 2.93180990000000e+01 -4.42366100000000e+00 9.00306000000000e-01
245 1 2.79021090000000e+01 -4.44369100000000e+00 7.95574000000000e-01
246 1 2.72864600000000e+01 -4.48886800000000e+00 -4.78947000000000e-01
247 1 2.58704700000000e+01 -4.47630400000000e+00 -5.84835000000000e-01
248 1 2.52548220000000e+01 -4.13411800000000e+00 -1.81339200000000e+00
249 1 2.38388310000000e+01 -4.09013500000000e+00 -1.91053000000000e+00
250 1 2.32231830000000e+01 -3.39260000000000e+00 -2.97818600000000e+00
251 1 2.18071930000000e+01 -3.32131300000000e+00 -3.05748400000000e+00
252 1 2.11915440000000e+01 -2.33368700000000e+00 -3.86435400000000e+00
253 1 1.97755540000000e+01 -2.24176500000000e+00 -3.91839500000000e+00
254 1 1.91599060000000e+01 -1.05644500000000e+00 -4.38899200000000e+00
255 1 1.77439150000000e+01 -9.52488000000000e-01 -4.41272000000000e+00
256 1 2.95027940000000e+01 -4.25213800000000e+00 -1.51613000000000e+00
257 1 2.80868030000000e+01 -4.21514200000000e+00 -1.61613800000000e+00
258 1 2.74711550000000e+01 -3.59495300000000e+00 -2.73050200000000e+00
259 1 2.60551640000000e+01 -3.52945800000000e+00 -2.81464900000000e+00
260 1 2.54395160000000e+01 -2.60144100000000e+00 -3.68942200000000e+00
261 1 2.40235260000000e+01 -2.51357500000000e+00 -3.74983500000000e+00
262 1 2.34078780000000e+01 -1.36455100000000e+00 -4.30317700000000e+00
263 1 2.19918870000000e+01 -1.26253400000000e+00 -4.33420500000000e+00
264 1 2.96874880000000e+01 -2.85613700000000e+00 -3.49597100000000e+00
265 1 2.82714970000000e+01 -2.77276900000000e+00 -3.56245400000000e+00
266 1 2.76558490000000e+01 -1.66580700000000e+00 -4.19576200000000e+00
267 1 2.62398590000000e+01 -1.56624300000000e+00 -4.23393500000000e+00
268 1 2.56242110000000e+01 -3.19632000000000e-01 -4.50301700000000e+00
269 1 2.42082200000000e+01 -2.13187000000000e-01 -4.50931000000000e+00
270 1 2.98721820000000e+01 -6.37661000000000e-01 -4.46908500000000e+00
271 1 2.84561920000000e+01 -5.31928000000000e-01 -4.48289900000000e+00
272 3 1.94900000000000e+00 -2.08800000000000e+00 1.94000000000000e+00
273 3 1.97800000000000e+00 -1.94800000000000e+00 -3.68800000000000e+00
274 3 3.81000000000000e+00 -1.70000000000000e+00 3.19000000000000e+00
275 3 7.72000000000000e-01 5.25300000000000e+00 -2.39000000000000e-01
276 3 2.26000000000000e+00 -3.83000000000000e+00 -2.05700000000000e+00
277 3 1.47000000000000e+00 2.05400000000000e+00 -4.88100000000000e+00
278 3 1.96400000000000e+00 -4.54000000000000e-01 4.07000000000000e-01
279 3 2.99800000000000e+00 1.80000000000000e-01 -4.49300000000000e+00
280 3 -3.91100000000000e+00 5.50000000000000e-01 1.06100000000000e+00
281 3 3.13000000000000e+00 -4.01500000000000e+00 3.08500000000000e+00
282 3 1.88700000000000e+00 3.61500000000000e+00 -2.18100000000000e+00
283 3 1.99000000000000e-01 3.15400000000000e+00 -1.92000000000000e-01
284 3 -2.48400000000000e+00 -1.18200000000000e+00 4.60300000000000e+00
285 3 1.96400000000000e+00 2.51200000000000e+00 2.77000000000000e+00
286 3 3.66000000000000e+00 6.77000000000000e-01 3.30200000000000e+00
287 3 -2.70900000000000e+00 -3.11900000000000e+00 1.55400000000000e+00
288 3 1.53900000000000e+00 -4.10000000000000e-02 2.67000000000000e+00
289 3 1.78000000000000e-01 -3.74500000000000e+00 -3.06900000000000e+00
290 3 -1.86600000000000e+00 -2.75300000000000e+00 -4.15400000000000e+00
291 3 -8.65000000000000e-01 5.68700000000000e+00 1.58300000000000e+00
292 3 7.36000000000000e-01 4.07400000000000e+00 1.88200000000000e+00
293 3 -3.15200000000000e+00 -1.49200000000000e+00 -2.49300000000000e+00
294 3 3.07100000000000e+00 -1.97300000000000e+00 -8.38000000000000e-01
295 3 -1.43200000000000e+00 3.03800000000000e+00 1.49400000000000e+00
296 3 -2.59000000000000e-01 -4.87600000000000e+00 4.43300000000000e+00
297 3 -4.48000000000000e-01 -1.07300000000000e+00 1.10200000000000e+00
298 3 1.90400000000000e+00 -3.65600000000000e+00 3.04000000000000e-01
299 3 -3.10800000000000e+00 4.68300000000000e+00 1.40200000000000e+00
300 3 -1.65800000000000e+00 9.02000000000000e-01 5.10000000000000e+00
301 3 -1.58600000000000e+00 -3.24600000000000e+00 -1.80600000000000e+00
302 3 4.15900000000000e+00 -6.93000000000000e-01 1.25800000000000e+00
303 3 4.22500000000000e+00 2.80800000000000e+00 -8.49000000000000e-01
304 3 -8.39000000000000e-01 3.99000000000000e-01 2.81500000000000e+00
305 3 -2.73900000000000e+00 1.72500000000000e+00 2.74200000000000e+00
306 3 1.63000000000000e-01 -6.90000000000000e-01 4.57600000000000e+00
307 3 -3.15100000000000e+00 4.51000000000000e-01 -1.11200000000000e+00
308 3 -3.07000000000000e-01 2.57100000000000e+00 3.60300000000000e+00
309 3 4.10500000000000e+00 3.04000000000000e-01 -1.10100000000000e+00
310 3 -2.44100000000000e+00 -9.09000000000000e-01 2.06100000000000e+00
311 3 1.36900000000000e+00 -2.91000000000000e+00 4.55200000000000e+00
312 3 1.59900000000000e+00 1.19600000000000e+00 4.58400000000000e+00
313 3 8.34000000000000e-01 -4.30700000000000e+00 2.36700000000000e+00
314 3 -8.78000000000000e-01 -2.79300000000000e+00 5.44100000000000e+00
315 3 -3.66100000000000e+00 -3.52500000000000e+00 -8.83000000000000e-01
316 3 3.69000000000000e-01 -4.86800000000000e+00 -1.01200000000000e+00
317 3 -1.67600000000000e+00 4.67300000000000e+00 -2.99000000000000e-01
318 3 -6.23000000000000e-01 -2.36600000000000e+00 3.10600000000000e+00
319 3 -4.00700000000000e+00 2.48700000000000e+00 -2.44500000000000e+00
320 3 3.15900000000000e+00 1.46900000000000e+00 1.27200000000000e+00
321 3 -8.55000000000000e-01 -1.26200000000000e+00 -2.60600000000000e+00
322 3 6.83000000000000e-01 -2.19800000000000e+00 -1.17800000000000e+00
323 3 -1.81700000000000e+00 2.62700000000000e+00 -1.47800000000000e+00
324 3 -3.51200000000000e+00 2.64600000000000e+00 1.49000000000000e-01
325 3 -1.55800000000000e+00 4.55700000000000e+00 3.40000000000000e+00
326 3 2.65300000000000e+00 -1.03200000000000e+00 4.94400000000000e+00
327 3 -4.41000000000000e-01 -3.36400000000000e+00 6.85000000000000e-01
328 3 -3.07700000000000e+00 1.66200000000000e+00 -4.62200000000000e+00
329 3 -2.16800000000000e+00 -1.58200000000000e+00 -3.72000000000000e-01
330 3 3.14000000000000e-01 2.00600000000000e+00 -2.65100000000000e+00
331 3 4.20400000000000e+00 -1.30600000000000e+00 -2.93900000000000e+00
332 3 2.60300000000000e+00 3.78000000000000e+00 4.60000000000000e-01
333 3 2.05400000000000e+00 -1.13000000000000e-01 -2.26500000000000e+00
334 3 -1.76500000000000e+00 8.66000000000000e-01 6.16000000000000e-01
335 3 2.85900000000000e+00 1.81000000000000e+00 -2.90900000000000e+00
336 3 -3.43000000000000e+00 -3.85200000000000e+00 -3.21900000000000e+00
337 3 -4.65000000000000e-01 4.31400000000000e+00 -2.17200000000000e+00
338 3 -2.49900000000000e+00 -3.41000000000000e+00 3.93500000000000e+00
339 3 -1.32500000000000e+00 -4.77900000000000e+00 2.45500000000000e+00
340 3 -3.62000000000000e-01 3.16000000000000e-01 -9.83000000000000e-01
341 3 -4.35400000000000e+00 3.46000000000000e-01 -3.37500000000000e+00
342 3 -2.23900000000000e+00 3.48600000000000e+00 -3.73500000000000e+00
343 3 3.95000000000000e+00 -3.01100000000000e+00 9.54000000000000e-01
344 3 5.62000000000000e-01 1.43000000000000e+00 1.25800000000000e+00
345 3 -9.06000000000000e-01 1.89500000000000e+00 -4.83900000000000e+00
346 3 -1.98800000000000e+00 -4.98000000000000e-01 -4.61700000000000e+00
347 3 4.63000000000000e-01 2.24000000000000e-01 -4.42200000000000e+00
348 3 3.64000000000000e-01 3.70700000000000e+00 -4.28100000000000e+00
349 3 1.90300000000000e+00 1.76800000000000e+00 -8.07000000000000e-01
350 3 1.85000000000000e-01 -2.00300000000000e+00 -4.92900000000000e+00
351 3 -1.68300000000000e+00 7.59000000000000e-01 -2.92300000000000e+00

Velocities

1 1.17008768745635e+01 -7.78290258249402e+00 -1.06788285327824e+01
2 4.39213262920306e+00 -3.79142383620463e+00 -1.66690055893147e+01
3 7.47699432591197e+00 -4.73153553731752e+00 1.52718236757840e+01
4 -9.01150056782919e+00 -9.53548929711486e+00 1.18063022346320e+01
5 -5.66561062415792e+00 -5.59922950775439e+00 1.57502684500860e+01
6 -1.56175872583267e+01 -4.66399830809318e+00 -6.77196862703234e+00
7 1.54758916331755e+01 -2.41105536456993e+00 -8.13664926502568e+00
8 -4.06198204287356e+00 -4.71019973838441e+00 1.65177417155842e+01
9 1.21334316105950e+01 2.87087375173253e+00 -1.24923733664777e+01
10 1.37947588622279e+01 -9.87097896706696e+00 -4.87748636487690e+00
11 6.26823059948572e+00 -1.61910827352024e+01 3.17483796253562e+00
12 -8.61598039604129e+00 5.30437752653955e+00 1.44620168699192e+01
13 3.10155806444505e+00 1.52569162740901e+01 -8.31434389793528e+00
14 1.09193299359403e+01 1.68026714389577e+00 -1.37646796966030e+01
15 -1.48292536335718e+01 9.36389369665522e+00 1.98297821062003e+00
16 1.30924865970819e+01 -1.18323404692530e+01 -3.22466742101914e-01
17 5.28501670083839e+00 9.24828633132477e+00 -1.40733531711723e+01
18 1.18804894586321e+01 -6.96194547706613e+00 1.10411392742119e+01
19 -3.62065660520615e+00 -1.31924170058017e+01 -1.11522397018296e+01
20 4.74699772314168e+00 4.57684561828200e+00 1.63719262115902e+01
21 8.93277601837279e+00 -7.89020440257438e+00 1.30181280592117e+01
22 -2.74684536635120e+00 -1.40316110048996e+00 -1.73783615606961e+01
23 1.90076879631961e+00 -1.33154604010382e+01 1.14283447343076e+01
24 3.85872554356755e+00 4.07512807404507e+00 -1.67339487101641e+01
25 -5.93287047342719e+00 6.27682448700799e+00 -1.53923355401215e+01
26 4.56000531216120e+00 -2.14134979961467e+00 -1.69157454362380e+01
27 -3.05963236965058e-01 -2.40273892203921e-01 -1.76456829289548e+01
28 1.06728755266887e+00 -7.27564478309904e-01 -1.76026423665504e+01
29 -1.20847358583587e+01 -4.06309268930122e+00 -1.22054048727070e+01
30 8.76408100893651e+00 3.04847801451798e+00 1.50139647308315e+01
31 3.17226225294788e+00 3.58790089961258e+00 1.69877953368863e+01
32 -1.51587241568838e+01 5.09524747127338e+00 7.46813271285704e+00
33 -6.46120551030929e+00 -3.70243181691505e-02 -1.64247655577870e+01
34 1.57207394295007e+01 -5.70283582092778e+00 -5.64424365740359e+00
35 -1.54874553217878e+01 -4.41330406538292e-01 8.45372262395365e+00
36 -2.00297250788915e+00 -4.83116046037239e+00 -1.68573266211944e+01
37 9.13857883789614e+00 1.18796110988330e+01 9.32108835055724e+00
38 -1.21772701949585e+01 -9.34080380801341e+00 8.71693443212878e+00
39 -8.29234564395525e+00 -3.88498861178173e+00 -1.50885830442211e+01
40 -4.22192707083598e+00 -1.16561169558182e+01 -1.25631102994316e+01
41 -2.82636279488215e+00 -3.05971174692976e+00 -1.71514229279165e+01
42 1.37900313252827e+01 -3.62364154485441e+00 1.04031595718312e+01
43 -1.35239354727709e+01 9.42675996095177e+00 -6.30561948120728e+00
44 -8.74212279027740e+00 1.66056571615422e+00 -1.52426796101243e+01
45 3.43369362038008e+00 -8.30302781345952e+00 -1.51918053017123e+01
46 1.53429325766694e+01 8.71994713550477e+00 2.80023171599827e-01
47 1.45741795171148e+01 -6.64259908516514e+00 -7.41556740051149e+00
48 1.03280276509343e+01 -4.01482012869073e+00 1.37380688326507e+01
49 1.31612376129817e-01 -1.78700911193300e+00 -1.75587797893581e+01
50 4.20431774674658e+00 -7.04100123188024e-01 -1.71274465807304e+01
51 7.77785548328798e-01 5.84544298608450e+00 -1.66357241204614e+01
52 5.15199843977478e+00 1.09572910068460e+01 -1.28419685773912e+01
53 -1.68017415523904e+01 2.21060155278930e+00 4.93317267651729e+00
54 -1.04649078875129e+01 -1.15907803775266e+01 -8.22562971575244e+00
55 -1.16814572179827e+01 1.29360975881937e+01 2.77892200826559e+00
56 6.39469160673715e+00 1.53815433882680e+01 -5.83416774908024e+00
57 3.57919868721188e+00 -2.88246889990825e+00 1.70411907117248e+01
58 1.64029052700845e+01 -1.23085568559885e+00 -6.39930965469856e+00
59 8.39518381317445e+00 8.66631438193431e+00 1.28816673940661e+01
60 1.42921465741841e+01 -3.40987019303439e+00 -9.77899803883545e+00
61 4.08130576529190e+00 2.02165476622105e+00 -1.70521941793795e+01
62 7.46487966367135e+00 6.27326148505626e+00 -1.47120098226541e+01
63 -1.69114774636764e+00 -1.28053283301364e+01 1.20285101626185e+01
64 -8.77324808840998e-02 -3.49951410078460e-03 -1.76497524583223e+01
65 6.80402536794549e+00 9.67882313162422e-01 1.62569958385637e+01
66 1.47148479991781e+01 2.37428081063759e-01 9.74363111690198e+00
67 1.73939686456886e+01 2.87956264257738e+00 -8.24284426110867e-01
68 -4.77295351668926e-01 -1.65138769031688e+01 -6.21172519104945e+00
69 -1.11171505345683e+00 -1.76140086375920e+01 1.79611886035684e-01
70 -7.82759208079938e-01 -1.27005977199350e+00 -1.75868049193873e+01
71 3.36904492254691e+00 2.17711505945242e+00 1.71881115135614e+01
72 2.91306854985262e-01 -1.75242360263163e+01 2.08272971963464e+00
73 5.16962951510260e+00 7.39343639915778e+00 1.51701516130539e+01
74 3.45918694260304e+00 3.72133814534381e-01 -1.73036705122081e+01
75 9.62347698371138e+00 -4.92677980116459e+00 -1.39512365978672e+01
76 -1.72247250232607e+01 -3.07063718848532e+00 -2.32411406875831e+00
77 -3.50480713637796e+00 2.32631403994783e+00 1.71413552847839e+01
78 6.74966038343954e+00 8.18049409799429e+00 1.41082625470241e+01
79 -9.70072687139935e+00 -1.61567299909265e+00 -1.46562945522178e+01