# converted from zinit_converted.dat

60 atoms
3 atom types

-50.0  50.0 xlo xhi
-50.0  50.0 ylo yhi
-50.0  50.0 zlo zhi

Masses

1  12.01
2  12.01
3  58.93

Atoms

1 3 -2.19431523353880e+00 -6.93720594391860e-01 4.76028096006530e+00
2 3 2.03335654199760e+00 -2.48328331602990e+00 2.73888630648770e+00
3 3 1.07122600471420e+00 2.40192980221630e+00 3.10080649193320e+00
4 3 1.68642103648710e+00 4.92916043144560e+00 -1.36565929669980e-01
5 3 3.95693250002770e+00 -2.80052043709120e+00 1.28550935489590e+00
6 3 -5.78225292257790e-01 4.46691848198440e+00 -8.38955932271170e-01
7 3 1.81623319872240e+00 2.22580285284290e+00 -2.98667316493520e+00
8 3 -3.18138709971490e+00 1.74149359668190e+00 1.42174245373440e+00
9 3 2.42738996985210e-02 -1.36044546394610e+00 -2.59143894953630e+00
10 3 -1.56669565704240e+00 -3.24307383088840e+00 7.85672870150880e-01
11 3 2.47269197558190e-01 -3.59173520335700e+00 2.28619458649180e+00
12 3 -4.07356326987160e-01 2.65828766165030e+00 -2.73659961671070e+00
13 3 -5.63660540054190e-01 3.49905159894420e-01 3.56894422513810e+00
14 3 2.84921186610620e+00 1.91908251051090e+00 1.82480413981480e+00
15 3 4.80296096024540e+00 1.31644410438480e+00 9.19435607750630e-01
16 3 -5.26909417033740e+00 6.81252997144990e-01 -2.20457593293720e+00
17 3 -3.91109760090750e+00 2.12541535340650e+00 -8.93687983180310e-01
18 3 -2.85243999059690e+00 9.95989899095630e-01 3.80515297503020e+00
19 3 -2.56149200808190e+00 3.54446981296030e+00 -2.10161934605570e+00
20 3 -3.70213989024500e+00 -1.59090234673760e+00 8.26046730267700e-01
21 3 -8.15863038578800e-02 -1.44299432624600e+00 1.88583078823980e+00
22 3 4.03673262077690e+00 -6.79438904154560e-01 2.70315429434140e-02
23 3 8.46953827474280e-01 2.57176559538070e+00 5.23036047941810e-01
24 3 -2.31591371164680e+00 8.82258649476130e-02 -3.92657722152460e-02
25 3 -4.42132441642560e+00 7.31024307430600e-02 2.51458499006100e+00
26 3 -4.35559124652660e+00 -1.22773943619040e+00 -1.23145537922980e+00
27 3 4.69899300916790e+00 -1.24973922107850e+00 -2.19565310656390e+00
28 3 -1.65062700892110e+00 -2.97474795593370e+00 3.44285862417460e+00
29 3 3.83482287632570e+00 6.51209557793070e-01 -2.81889282204330e+00
30 3 -1.76692708603890e+00 8.47967425701330e-01 -2.32290566280620e+00
31 3 2.93785602400030e+00 1.54997564721490e+00 -9.01439752011510e-01
32 3 2.09957701677630e+00 -5.68037065019550e-01 -3.97540353756270e+00
33 3 -2.73488679855220e-01 8.11896869711900e-01 1.23142886673220e+00
34 3 3.56249436025310e+00 -2.79116585252610e+00 -9.56041248392830e-01
35 3 1.54966479239950e+00 -3.25297121793600e+00 -1.81748000192380e+00
36 3 2.49249542995810e-01 -1.65958274749210e+00 4.43588021713170e+00
37 3 2.59625165651050e+00 -1.43319109567180e+00 4.66591690771960e+00
38 3 1.60315352863580e+00 -2.29174440350710e+00 4.06954308507970e-01
39 3 -4.94679725385030e+00 2.94883898816790e-01 2.26153691629310e-01
40 3 1.77086962878160e+00 -2.93146685720910e-03 5.16965655472250e-01
41 3 -1.59469872054350e+00 -8.34299177557380e-01 -4.18837957138220e+00
42 3 1.18470739053590e-01 9.43164872366300e-01 -3.96338256846540e+00
43 3 5.32248461315400e-02 4.73656022501440e+00 1.59359032465050e+00
44 3 1.56265014627230e+00 2.03512001029270e-02 2.96184244340030e+00
45 3 3.76134723968590e+00 -5.06567061405450e-01 2.51581613708480e+00
46 3 -3.60140314666910e+00 -1.18233956229210e-01 -3.40698063161180e+00
47 3 3.50012574775780e-01 7.99015335828090e-01 -1.22958175122660e+00
48 3 -1.37031453898810e+00 2.22468895543950e+00 -3.56264689691430e-01
49 3 2.16154490720980e+00 -1.01073396999270e+00 -1.69530654273230e+00
50 3 -4.23556415291160e-01 -1.22444441165960e+00 -3.06267330562020e-01
51 3 -2.18215215112920e+00 -1.44479881376040e+00 -2.02780792984060e+00
52 3 -7.99288508585490e-01 -3.33791149475840e+00 -1.59689043760670e+00
53 3 4.72220391490610e-01 -4.15219227792780e+00 1.02353763877300e-01
54 3 3.72311557554310e+00 3.46296358170000e+00 4.21649790538020e-01
55 3 -3.91014970273270e+00 2.30691440762980e+00 -3.33076708942910e+00
56 3 3.09209570158350e+00 -2.58455639240560e+00 -3.37558486942830e+00
57 3 -2.06997440267550e+00 1.83792144607560e+00 -4.33486788180260e+00
58 3 -1.17080568804460e+00 2.95984550096560e+00 1.99106745323390e+00
59 3 -2.20834310794710e+00 -7.06969637352120e-01 2.17672007833820e+00
60 3 2.35308110993420e+00 -4.27267543078190e+00 1.62294721449770e+00

Velocities

1 3.42179280194750e+00 -1.18412331995130e+00 -3.32878999248250e-01
2 -2.00218087491780e+00 1.06396565229420e+00 8.09949386711400e+00
3 2.48751490581670e+00 -3.95451790337200e+00 -6.50325444141320e-01
4 6.44128763995390e-01 -1.92320180184660e+00 -6.70567676618860e+00
5 6.59330362592010e+00 5.35037473408480e+00 1.12920550900820e+01
6 -4.92072244912300e+00 1.99711223497630e+00 7.45650641457030e+00
7 -7.24631949153420e+00 1.12057266609370e+00 5.14059853841850e+00
8 6.29095849496670e+00 -5.57379250769070e+00 1.55033482578000e+00
9 -2.87748170108060e+00 -1.49021953873660e+00 8.86977827235700e+00
10 -9.37218980451430e+00 3.48641718592210e-02 1.46527422859250e+00
11 4.49889315111250e+00 -1.39048561187820e+00 -1.04154527425080e+00
12 -1.85357266143100e+00 -5.54563277078000e-02 -1.63397783285730e+00
13 7.88118090366000e-01 1.20320439076780e+01 7.04474329875410e+00
14 1.72987391154060e+00 -5.85388663539820e+00 -3.66708614922030e-01
15 -4.60857375286320e+00 1.64830493888940e+00 4.29479432016110e+00
16 1.39649194287280e+00 2.20005635963040e+00 -3.96618531738170e+00
17 3.17578983244190e+00 3.61151610774410e+00 -1.48685695201040e+00
18 2.15097595601080e+00 1.03150225906740e+00 7.86452956148520e-01
19 -7.98877168365410e-01 1.40687109881930e+00 -4.01059580685560e+00
20 5.23536200997710e+00 -4.31080251003290e+00 -3.86210609302340e+00
21 -5.40696435722390e+00 -2.38785528049820e+00 -1.67037816863240e+00
22 2.15866784316970e+00 -7.35716990626930e+00 -1.17629607660790e+00
23 3.04625221898390e+00 -4.46282475263770e-01 -3.87726495880680e+00
24 2.49658927925650e+00 -2.29346241607380e+00 6.66863199686420e+00
25 -5.13108321673710e+00 2.98317144274750e+00 3.47415731321090e+00
26 4.91568579170750e+00 -9.76595244758160e-01 8.04379267930960e-02
27 -5.30877935246810e+00 1.76571731786840e-01 -7.92217784608450e+00
28 3.18695564882020e+00 -6.01948499386720e+00 -3.09344212134050e-01
29 -3.71043555299510e+00 -1.55116115099420e+00 -2.97215348839550e+00
30 -1.31095651036580e+00 -8.75855118835500e-01 -1.93830562170210e+00
31 4.38537102569800e+00 -2.58687962788520e+00 -3.74332403503250e+00
32 1.17331949770090e+00 3.11946267032830e-01 -5.87518071212340e+00
33 4.08931997654540e+00 -6.13540388738790e-03 1.27173111125750e+00
34 5.38868064942440e+00 -1.76568364956060e+00 7.66948324639090e+00
35 -5.90684904753130e+00 -1.75816578024220e+00 7.74973531264420e+00
36 -9.19612303387270e+00 7.92452176054260e+00 2.22726696881270e+00
37 3.49164107814500e+00 7.96818166412020e-03 4.75221357086930e+00
38 9.59799014484050e+00 8.85640297065830e-01 7.05634136823910e+00
39 1.38122341629880e+00 2.69533771879060e+00 3.21601004855160e-01
40 1.94378288976680e+00 2.88716034493130e+00 -2.43441078518320e+00
41 -4.27384502471790e+00 6.77057773628290e+00 4.46383324252670e+00
42 -1.13650311493670e+01 -4.43754376710940e+00 5.64941709376920e+00
43 -8.13759841294990e+00 -8.96470602377390e+00 3.59630440602090e+00
44 -2.85800465983350e+00 3.43751293894820e+00 -9.27961808946560e-01
45 -1.53407534703840e+00 3.81414272168480e-01 -3.48304157285650e-01
46 -1.81702472409240e+00 8.15518671060700e-01 -2.58851186028570e+00
47 -5.64064748478700e+00 -4.77434610672150e-01 8.90158205122700e-01
48 -1.53457016805840e+00 9.94907370436410e+00 2.34270448196130e+00
49 1.59762864352690e+00 -1.75494934228170e+00 -2.94634769933800e+00
50 4.66004319168100e+00 -5.87283498667520e+00 4.30835506755140e+00
51 -1.49382310844020e+00 -5.64093767768870e+00 2.96054336716250e+00
52 -2.57206799306920e+00 2.92103926496170e-02 -5.00057207077920e+00
53 2.49231518091730e+00 1.36742577764260e+00 1.13344130836500e+00
54 5.71055743502960e+00 1.34049126531450e+00 -1.20239614161640e+00
55 2.16928357714860e+00 5.70290854980250e+00 2.35846925248550e+00
56 -8.97248466504820e-01 2.25586276930770e+00 -9.38868896613530e+00
57 -5.59223762783510e+00 -5.12008004113000e-01 4.74735404164200e+00
58 -1.98675554545580e+00 -1.35208862359620e+00 -4.31242317236920e-01
59 -1.20070396854650e+00 1.67573660952510e+00 -3.36431862537330e+00
60 1.40347836492760e+00 1.00078529240340e+01 2.29182140646650e+00
