# converted from swnt_pos.dat

536 atoms
3 atom types

-50  50 xlo xhi
-50  50 ylo yhi
-50  50 zlo zhi

Masses

1  12.01
2  12.01
3  58.93

Atoms

1 1 6.42000000000000e+00 -0.00000000000000e+00 -7.43742700000000e+00
2 1 5.00000000000000e+00 0.00000000000000e+00 -7.43742700000000e+00
3 1 8.55000000000000e+00 1.22416000000000e+00 -7.33599000000000e+00
4 1 7.13000000000000e+00 1.22416000000000e+00 -7.33599000000000e+00
5 1 6.42000000000000e+00 2.41492900000000e+00 -7.03444700000000e+00
6 1 5.00000000000000e+00 2.41492900000000e+00 -7.03444700000000e+00
7 1 8.55000000000000e+00 3.53982400000000e+00 -6.54102200000000e+00
8 1 7.13000000000000e+00 3.53982400000000e+00 -6.54102200000000e+00
9 1 6.42000000000000e+00 4.56816200000000e+00 -5.86917500000000e+00
10 1 5.00000000000000e+00 4.56816200000000e+00 -5.86917500000000e+00
11 1 8.55000000000000e+00 5.47189300000000e+00 -5.03723200000000e+00
12 1 7.13000000000000e+00 5.47189300000000e+00 -5.03723200000000e+00
13 1 6.42000000000000e+00 6.22636400000000e+00 -4.06788700000000e+00
14 1 5.00000000000000e+00 6.22636400000000e+00 -4.06788700000000e+00
15 1 8.55000000000000e+00 6.81099700000000e+00 -2.98758000000000e+00
16 1 7.13000000000000e+00 6.81099700000000e+00 -2.98758000000000e+00
17 1 6.42000000000000e+00 7.20984400000000e+00 -1.82578000000000e+00
18 1 5.00000000000000e+00 7.20984400000000e+00 -1.82578000000000e+00
19 1 8.55000000000000e+00 7.41202400000000e+00 -6.14178000000000e-01
20 1 7.13000000000000e+00 7.41202400000000e+00 -6.14178000000000e-01
21 1 6.42000000000000e+00 7.41202400000000e+00 6.14178000000000e-01
22 1 5.00000000000000e+00 7.41202400000000e+00 6.14178000000000e-01
23 1 8.55000000000000e+00 7.20984400000000e+00 1.82578000000000e+00
24 1 7.13000000000000e+00 7.20984400000000e+00 1.82578000000000e+00
25 1 6.42000000000000e+00 6.81099700000000e+00 2.98758000000000e+00
26 1 5.00000000000000e+00 6.81099700000000e+00 2.98758000000000e+00
27 1 8.55000000000000e+00 6.22636400000000e+00 4.06788700000000e+00
28 1 7.13000000000000e+00 6.22636400000000e+00 4.06788700000000e+00
29 1 6.42000000000000e+00 5.47189300000000e+00 5.03723200000000e+00
30 1 5.00000000000000e+00 5.47189300000000e+00 5.03723200000000e+00
31 1 8.55000000000000e+00 4.56816200000000e+00 5.86917500000000e+00
32 1 7.13000000000000e+00 4.56816200000000e+00 5.86917500000000e+00
33 1 6.42000000000000e+00 3.53982400000000e+00 6.54102200000000e+00
34 1 5.00000000000000e+00 3.53982400000000e+00 6.54102200000000e+00
35 1 8.55000000000000e+00 2.41492900000000e+00 7.03444700000000e+00
36 1 7.13000000000000e+00 2.41492900000000e+00 7.03444700000000e+00
37 1 6.42000000000000e+00 1.22416000000000e+00 7.33599000000000e+00
38 1 5.00000000000000e+00 1.22416000000000e+00 7.33599000000000e+00
39 1 8.55000000000000e+00 -0.00000000000000e+00 7.43742700000000e+00
40 1 7.13000000000000e+00 0.00000000000000e+00 7.43742700000000e+00
41 1 6.42000000000000e+00 -1.22416000000000e+00 7.33599000000000e+00
42 1 5.00000000000000e+00 -1.22416000000000e+00 7.33599000000000e+00
43 1 8.55000000000000e+00 -2.41492900000000e+00 7.03444700000000e+00
44 1 7.13000000000000e+00 -2.41492900000000e+00 7.03444700000000e+00
45 1 6.42000000000000e+00 -3.53982400000000e+00 6.54102200000000e+00
46 1 5.00000000000000e+00 -3.53982400000000e+00 6.54102200000000e+00
47 1 8.55000000000000e+00 -4.56816200000000e+00 5.86917500000000e+00
48 1 7.13000000000000e+00 -4.56816200000000e+00 5.86917500000000e+00
49 1 6.42000000000000e+00 -5.47189300000000e+00 5.03723200000000e+00
50 1 5.00000000000000e+00 -5.47189300000000e+00 5.03723200000000e+00
51 1 8.55000000000000e+00 -6.22636400000000e+00 4.06788700000000e+00
52 1 7.13000000000000e+00 -6.22636400000000e+00 4.06788700000000e+00
53 1 6.42000000000000e+00 -6.81099700000000e+00 2.98758000000000e+00
54 1 5.00000000000000e+00 -6.81099700000000e+00 2.98758000000000e+00
55 1 8.55000000000000e+00 -7.20984400000000e+00 1.82578000000000e+00
56 1 7.13000000000000e+00 -7.20984400000000e+00 1.82578000000000e+00
57 1 6.42000000000000e+00 -7.41202400000000e+00 6.14178000000000e-01
58 1 5.00000000000000e+00 -7.41202400000000e+00 6.14178000000000e-01
59 1 8.55000000000000e+00 -7.41202400000000e+00 -6.14178000000000e-01
60 1 7.13000000000000e+00 -7.41202400000000e+00 -6.14178000000000e-01
61 1 6.42000000000000e+00 -7.20984400000000e+00 -1.82578000000000e+00
62 1 5.00000000000000e+00 -7.20984400000000e+00 -1.82578000000000e+00
63 1 8.55000000000000e+00 -6.81099700000000e+00 -2.98758000000000e+00
64 1 7.13000000000000e+00 -6.81099700000000e+00 -2.98758000000000e+00
65 1 6.42000000000000e+00 -6.22636400000000e+00 -4.06788700000000e+00
66 1 5.00000000000000e+00 -6.22636400000000e+00 -4.06788700000000e+00
67 1 8.55000000000000e+00 -5.47189300000000e+00 -5.03723200000000e+00
68 1 7.13000000000000e+00 -5.47189300000000e+00 -5.03723200000000e+00
69 1 6.42000000000000e+00 -4.56816200000000e+00 -5.86917500000000e+00
70 1 5.00000000000000e+00 -4.56816200000000e+00 -5.86917500000000e+00
71 1 8.55000000000000e+00 -3.53982400000000e+00 -6.54102200000000e+00
72 1 7.13000000000000e+00 -3.53982400000000e+00 -6.54102200000000e+00
73 1 6.42000000000000e+00 -2.41492900000000e+00 -7.03444700000000e+00
74 1 5.00000000000000e+00 -2.41492900000000e+00 -7.03444700000000e+00
75 1 8.55000000000000e+00 -1.22416000000000e+00 -7.33599000000000e+00
76 1 7.13000000000000e+00 -1.22416000000000e+00 -7.33599000000000e+00
77 1 1.06800000000000e+01 -0.00000000000000e+00 -7.43742700000000e+00
78 1 9.26000000000000e+00 -0.00000000000000e+00 -7.43742700000000e+00
79 1 1.28100000000000e+01 1.22416000000000e+00 -7.33599000000000e+00
80 1 1.13900000000000e+01 1.22416000000000e+00 -7.33599000000000e+00
81 1 1.06800000000000e+01 2.41492900000000e+00 -7.03444700000000e+00
82 1 9.26000000000000e+00 2.41492900000000e+00 -7.03444700000000e+00
83 1 1.28100000000000e+01 3.53982400000000e+00 -6.54102200000000e+00
84 1 1.13900000000000e+01 3.53982400000000e+00 -6.54102200000000e+00
85 1 1.06800000000000e+01 4.56816200000000e+00 -5.86917500000000e+00
86 1 9.26000000000000e+00 4.56816200000000e+00 -5.86917500000000e+00
87 1 1.28100000000000e+01 5.47189300000000e+00 -5.03723200000000e+00
88 1 1.13900000000000e+01 5.47189300000000e+00 -5.03723200000000e+00
89 1 1.06800000000000e+01 6.22636400000000e+00 -4.06788700000000e+00
90 1 9.26000000000000e+00 6.22636400000000e+00 -4.06788700000000e+00
91 1 1.28100000000000e+01 6.81099700000000e+00 -2.98758000000000e+00
92 1 1.13900000000000e+01 6.81099700000000e+00 -2.98758000000000e+00
93 1 1.06800000000000e+01 7.20984400000000e+00 -1.82578000000000e+00
94 1 9.26000000000000e+00 7.20984400000000e+00 -1.82578000000000e+00
95 1 1.28100000000000e+01 7.41202400000000e+00 -6.14178000000000e-01
96 1 1.13900000000000e+01 7.41202400000000e+00 -6.14178000000000e-01
97 1 1.06800000000000e+01 7.41202400000000e+00 6.14178000000000e-01
98 1 9.26000000000000e+00 7.41202400000000e+00 6.14178000000000e-01
99 1 1.28100000000000e+01 7.20984400000000e+00 1.82578000000000e+00
100 1 1.13900000000000e+01 7.20984400000000e+00 1.82578000000000e+00
101 1 1.06800000000000e+01 6.81099700000000e+00 2.98758000000000e+00
102 1 9.26000000000000e+00 6.81099700000000e+00 2.98758000000000e+00
103 1 1.28100000000000e+01 6.22636400000000e+00 4.06788700000000e+00
104 1 1.13900000000000e+01 6.22636400000000e+00 4.06788700000000e+00
105 1 1.06800000000000e+01 5.47189300000000e+00 5.03723200000000e+00
106 1 9.26000000000000e+00 5.47189300000000e+00 5.03723200000000e+00
107 1 1.28100000000000e+01 4.56816200000000e+00 5.86917500000000e+00
108 1 1.13900000000000e+01 4.56816200000000e+00 5.86917500000000e+00
109 1 1.06800000000000e+01 3.53982400000000e+00 6.54102200000000e+00
110 1 9.26000000000000e+00 3.53982400000000e+00 6.54102200000000e+00
111 1 1.28100000000000e+01 2.41492900000000e+00 7.03444700000000e+00
112 1 1.13900000000000e+01 2.41492900000000e+00 7.03444700000000e+00
113 1 1.06800000000000e+01 1.22416000000000e+00 7.33599000000000e+00
114 1 9.26000000000000e+00 1.22416000000000e+00 7.33599000000000e+00
115 1 1.28100000000000e+01 -0.00000000000000e+00 7.43742700000000e+00
116 1 1.13900000000000e+01 -0.00000000000000e+00 7.43742700000000e+00
117 1 1.06800000000000e+01 -1.22416000000000e+00 7.33599000000000e+00
118 1 9.26000000000000e+00 -1.22416000000000e+00 7.33599000000000e+00
119 1 1.28100000000000e+01 -2.41492900000000e+00 7.03444700000000e+00
120 1 1.13900000000000e+01 -2.41492900000000e+00 7.03444700000000e+00
121 1 1.06800000000000e+01 -3.53982400000000e+00 6.54102200000000e+00
122 1 9.26000000000000e+00 -3.53982400000000e+00 6.54102200000000e+00
123 1 1.28100000000000e+01 -4.56816200000000e+00 5.86917500000000e+00
124 1 1.13900000000000e+01 -4.56816200000000e+00 5.86917500000000e+00
125 1 1.06800000000000e+01 -5.47189300000000e+00 5.03723200000000e+00
126 1 9.26000000000000e+00 -5.47189300000000e+00 5.03723200000000e+00
127 1 1.28100000000000e+01 -6.22636400000000e+00 4.06788700000000e+00
128 1 1.13900000000000e+01 -6.22636400000000e+00 4.06788700000000e+00
129 1 1.06800000000000e+01 -6.81099700000000e+00 2.98758000000000e+00
130 1 9.26000000000000e+00 -6.81099700000000e+00 2.98758000000000e+00
131 1 1.28100000000000e+01 -7.20984400000000e+00 1.82578000000000e+00
132 1 1.13900000000000e+01 -7.20984400000000e+00 1.82578000000000e+00
133 1 1.06800000000000e+01 -7.41202400000000e+00 6.14178000000000e-01
134 1 9.26000000000000e+00 -7.41202400000000e+00 6.14178000000000e-01
135 1 1.28100000000000e+01 -7.41202400000000e+00 -6.14178000000000e-01
136 1 1.13900000000000e+01 -7.41202400000000e+00 -6.14178000000000e-01
137 1 1.06800000000000e+01 -7.20984400000000e+00 -1.82578000000000e+00
138 1 9.26000000000000e+00 -7.20984400000000e+00 -1.82578000000000e+00
139 1 1.28100000000000e+01 -6.81099700000000e+00 -2.98758000000000e+00
140 1 1.13900000000000e+01 -6.81099700000000e+00 -2.98758000000000e+00
141 1 1.06800000000000e+01 -6.22636400000000e+00 -4.06788700000000e+00
142 1 9.26000000000000e+00 -6.22636400000000e+00 -4.06788700000000e+00
143 1 1.28100000000000e+01 -5.47189300000000e+00 -5.03723200000000e+00
144 1 1.13900000000000e+01 -5.47189300000000e+00 -5.03723200000000e+00
145 1 1.06800000000000e+01 -4.56816200000000e+00 -5.86917500000000e+00
146 1 9.26000000000000e+00 -4.56816200000000e+00 -5.86917500000000e+00
147 1 1.28100000000000e+01 -3.53982400000000e+00 -6.54102200000000e+00
148 1 1.13900000000000e+01 -3.53982400000000e+00 -6.54102200000000e+00
149 1 1.06800000000000e+01 -2.41492900000000e+00 -7.03444700000000e+00
150 1 9.26000000000000e+00 -2.41492900000000e+00 -7.03444700000000e+00
151 1 1.28100000000000e+01 -1.22416000000000e+00 -7.33599000000000e+00
152 1 1.13900000000000e+01 -1.22416000000000e+00 -7.33599000000000e+00
153 1 1.49400000000000e+01 -0.00000000000000e+00 -7.43742700000000e+00
154 1 1.35200000000000e+01 -0.00000000000000e+00 -7.43742700000000e+00
155 1 1.70700000000000e+01 1.22416000000000e+00 -7.33599000000000e+00
156 1 1.56500000000000e+01 1.22416000000000e+00 -7.33599000000000e+00
157 1 1.49400000000000e+01 2.41492900000000e+00 -7.03444700000000e+00
158 1 1.35200000000000e+01 2.41492900000000e+00 -7.03444700000000e+00
159 1 1.70700000000000e+01 3.53982400000000e+00 -6.54102200000000e+00
160 1 1.56500000000000e+01 3.53982400000000e+00 -6.54102200000000e+00
161 1 1.49400000000000e+01 4.56816200000000e+00 -5.86917500000000e+00
162 1 1.35200000000000e+01 4.56816200000000e+00 -5.86917500000000e+00
163 1 1.70700000000000e+01 5.47189300000000e+00 -5.03723200000000e+00
164 1 1.56500000000000e+01 5.47189300000000e+00 -5.03723200000000e+00
165 1 1.49400000000000e+01 6.22636400000000e+00 -4.06788700000000e+00
166 1 1.35200000000000e+01 6.22636400000000e+00 -4.06788700000000e+00
167 1 1.70700000000000e+01 6.81099700000000e+00 -2.98758000000000e+00
168 1 1.56500000000000e+01 6.81099700000000e+00 -2.98758000000000e+00
169 1 1.49400000000000e+01 7.20984400000000e+00 -1.82578000000000e+00
170 1 1.35200000000000e+01 7.20984400000000e+00 -1.82578000000000e+00
171 1 1.70700000000000e+01 7.41202400000000e+00 -6.14178000000000e-01
172 1 1.56500000000000e+01 7.41202400000000e+00 -6.14178000000000e-01
173 1 1.49400000000000e+01 7.41202400000000e+00 6.14178000000000e-01
174 1 1.35200000000000e+01 7.41202400000000e+00 6.14178000000000e-01
175 1 1.70700000000000e+01 7.20984400000000e+00 1.82578000000000e+00
176 1 1.56500000000000e+01 7.20984400000000e+00 1.82578000000000e+00
177 1 1.49400000000000e+01 6.81099700000000e+00 2.98758000000000e+00
178 1 1.35200000000000e+01 6.81099700000000e+00 2.98758000000000e+00
179 1 1.70700000000000e+01 6.22636400000000e+00 4.06788700000000e+00
180 1 1.56500000000000e+01 6.22636400000000e+00 4.06788700000000e+00
181 1 1.49400000000000e+01 5.47189300000000e+00 5.03723200000000e+00
182 1 1.35200000000000e+01 5.47189300000000e+00 5.03723200000000e+00
183 1 1.70700000000000e+01 4.56816200000000e+00 5.86917500000000e+00
184 1 1.56500000000000e+01 4.56816200000000e+00 5.86917500000000e+00
185 1 1.49400000000000e+01 3.53982400000000e+00 6.54102200000000e+00
186 1 1.35200000000000e+01 3.53982400000000e+00 6.54102200000000e+00
187 1 1.70700000000000e+01 2.41492900000000e+00 7.03444700000000e+00
188 1 1.56500000000000e+01 2.41492900000000e+00 7.03444700000000e+00
189 1 1.49400000000000e+01 1.22416000000000e+00 7.33599000000000e+00
190 1 1.35200000000000e+01 1.22416000000000e+00 7.33599000000000e+00
191 1 1.70700000000000e+01 -0.00000000000000e+00 7.43742700000000e+00
192 1 1.56500000000000e+01 -0.00000000000000e+00 7.43742700000000e+00
193 1 1.49400000000000e+01 -1.22416000000000e+00 7.33599000000000e+00
194 1 1.35200000000000e+01 -1.22416000000000e+00 7.33599000000000e+00
195 1 1.70700000000000e+01 -2.41492900000000e+00 7.03444700000000e+00
196 1 1.56500000000000e+01 -2.41492900000000e+00 7.03444700000000e+00
197 1 1.49400000000000e+01 -3.53982400000000e+00 6.54102200000000e+00
198 1 1.35200000000000e+01 -3.53982400000000e+00 6.54102200000000e+00
199 1 1.70700000000000e+01 -4.56816200000000e+00 5.86917500000000e+00
200 1 1.56500000000000e+01 -4.56816200000000e+00 5.86917500000000e+00
201 1 1.49400000000000e+01 -5.47189300000000e+00 5.03723200000000e+00
202 1 1.35200000000000e+01 -5.47189300000000e+00 5.03723200000000e+00
203 1 1.70700000000000e+01 -6.22636400000000e+00 4.06788700000000e+00
204 1 1.56500000000000e+01 -6.22636400000000e+00 4.06788700000000e+00
205 1 1.49400000000000e+01 -6.81099700000000e+00 2.98758000000000e+00
206 1 1.35200000000000e+01 -6.81099700000000e+00 2.98758000000000e+00
207 1 1.70700000000000e+01 -7.20984400000000e+00 1.82578000000000e+00
208 1 1.56500000000000e+01 -7.20984400000000e+00 1.82578000000000e+00
209 1 1.49400000000000e+01 -7.41202400000000e+00 6.14178000000000e-01
210 1 1.35200000000000e+01 -7.41202400000000e+00 6.14178000000000e-01
211 1 1.70700000000000e+01 -7.41202400000000e+00 -6.14178000000000e-01
212 1 1.56500000000000e+01 -7.41202400000000e+00 -6.14178000000000e-01
213 1 1.49400000000000e+01 -7.20984400000000e+00 -1.82578000000000e+00
214 1 1.35200000000000e+01 -7.20984400000000e+00 -1.82578000000000e+00
215 1 1.70700000000000e+01 -6.81099700000000e+00 -2.98758000000000e+00
216 1 1.56500000000000e+01 -6.81099700000000e+00 -2.98758000000000e+00
217 1 1.49400000000000e+01 -6.22636400000000e+00 -4.06788700000000e+00
218 1 1.35200000000000e+01 -6.22636400000000e+00 -4.06788700000000e+00
219 1 1.70700000000000e+01 -5.47189300000000e+00 -5.03723200000000e+00
220 1 1.56500000000000e+01 -5.47189300000000e+00 -5.03723200000000e+00
221 1 1.49400000000000e+01 -4.56816200000000e+00 -5.86917500000000e+00
222 1 1.35200000000000e+01 -4.56816200000000e+00 -5.86917500000000e+00
223 1 1.70700000000000e+01 -3.53982400000000e+00 -6.54102200000000e+00
224 1 1.56500000000000e+01 -3.53982400000000e+00 -6.54102200000000e+00
225 1 1.49400000000000e+01 -2.41492900000000e+00 -7.03444700000000e+00
226 1 1.35200000000000e+01 -2.41492900000000e+00 -7.03444700000000e+00
227 1 1.70700000000000e+01 -1.22416000000000e+00 -7.33599000000000e+00
228 1 1.56500000000000e+01 -1.22416000000000e+00 -7.33599000000000e+00
229 1 1.92000000000000e+01 -0.00000000000000e+00 -7.43742700000000e+00
230 1 1.77800000000000e+01 -0.00000000000000e+00 -7.43742700000000e+00
231 1 2.13300000000000e+01 1.22416000000000e+00 -7.33599000000000e+00
232 1 1.99100000000000e+01 1.22416000000000e+00 -7.33599000000000e+00
233 1 1.92000000000000e+01 2.41492900000000e+00 -7.03444700000000e+00
234 1 1.77800000000000e+01 2.41492900000000e+00 -7.03444700000000e+00
235 1 2.13300000000000e+01 3.53982400000000e+00 -6.54102200000000e+00
236 1 1.99100000000000e+01 3.53982400000000e+00 -6.54102200000000e+00
237 1 1.92000000000000e+01 4.56816200000000e+00 -5.86917500000000e+00
238 1 1.77800000000000e+01 4.56816200000000e+00 -5.86917500000000e+00
239 1 2.13300000000000e+01 5.47189300000000e+00 -5.03723200000000e+00
240 1 1.99100000000000e+01 5.47189300000000e+00 -5.03723200000000e+00
241 1 1.92000000000000e+01 6.22636400000000e+00 -4.06788700000000e+00
242 1 1.77800000000000e+01 6.22636400000000e+00 -4.06788700000000e+00
243 1 2.13300000000000e+01 6.81099700000000e+00 -2.98758000000000e+00
244 1 1.99100000000000e+01 6.81099700000000e+00 -2.98758000000000e+00
245 1 1.92000000000000e+01 7.20984400000000e+00 -1.82578000000000e+00
246 1 1.77800000000000e+01 7.20984400000000e+00 -1.82578000000000e+00
247 1 2.13300000000000e+01 7.41202400000000e+00 -6.14178000000000e-01
248 1 1.99100000000000e+01 7.41202400000000e+00 -6.14178000000000e-01
249 1 1.92000000000000e+01 7.41202400000000e+00 6.14178000000000e-01
250 1 1.77800000000000e+01 7.41202400000000e+00 6.14178000000000e-01
251 1 2.13300000000000e+01 7.20984400000000e+00 1.82578000000000e+00
252 1 1.99100000000000e+01 7.20984400000000e+00 1.82578000000000e+00
253 1 1.92000000000000e+01 6.81099700000000e+00 2.98758000000000e+00
254 1 1.77800000000000e+01 6.81099700000000e+00 2.98758000000000e+00
255 1 2.13300000000000e+01 6.22636400000000e+00 4.06788700000000e+00
256 1 1.99100000000000e+01 6.22636400000000e+00 4.06788700000000e+00
257 1 1.92000000000000e+01 5.47189300000000e+00 5.03723200000000e+00
258 1 1.77800000000000e+01 5.47189300000000e+00 5.03723200000000e+00
259 1 2.13300000000000e+01 4.56816200000000e+00 5.86917500000000e+00
260 1 1.99100000000000e+01 4.56816200000000e+00 5.86917500000000e+00
261 1 1.92000000000000e+01 3.53982400000000e+00 6.54102200000000e+00
262 1 1.77800000000000e+01 3.53982400000000e+00 6.54102200000000e+00
263 1 2.13300000000000e+01 2.41492900000000e+00 7.03444700000000e+00
264 1 1.99100000000000e+01 2.41492900000000e+00 7.03444700000000e+00
265 1 1.92000000000000e+01 1.22416000000000e+00 7.33599000000000e+00
266 1 1.77800000000000e+01 1.22416000000000e+00 7.33599000000000e+00
267 1 2.13300000000000e+01 0.00000000000000e+00 7.43742700000000e+00
268 1 1.99100000000000e+01 0.00000000000000e+00 7.43742700000000e+00
269 1 1.92000000000000e+01 -1.22416000000000e+00 7.33599000000000e+00
270 1 1.77800000000000e+01 -1.22416000000000e+00 7.33599000000000e+00
271 1 2.13300000000000e+01 -2.41492900000000e+00 7.03444700000000e+00
272 1 1.99100000000000e+01 -2.41492900000000e+00 7.03444700000000e+00
273 1 1.92000000000000e+01 -3.53982400000000e+00 6.54102200000000e+00
274 1 1.77800000000000e+01 -3.53982400000000e+00 6.54102200000000e+00
275 1 2.13300000000000e+01 -4.56816200000000e+00 5.86917500000000e+00
276 1 1.99100000000000e+01 -4.56816200000000e+00 5.86917500000000e+00
277 1 1.92000000000000e+01 -5.47189300000000e+00 5.03723200000000e+00
278 1 1.77800000000000e+01 -5.47189300000000e+00 5.03723200000000e+00
279 1 2.13300000000000e+01 -6.22636400000000e+00 4.06788700000000e+00
280 1 1.99100000000000e+01 -6.22636400000000e+00 4.06788700000000e+00
281 1 1.92000000000000e+01 -6.81099700000000e+00 2.98758000000000e+00
282 1 1.77800000000000e+01 -6.81099700000000e+00 2.98758000000000e+00
283 1 2.13300000000000e+01 -7.20984400000000e+00 1.82578000000000e+00
284 1 1.99100000000000e+01 -7.20984400000000e+00 1.82578000000000e+00
285 1 1.92000000000000e+01 -7.41202400000000e+00 6.14178000000000e-01
286 1 1.77800000000000e+01 -7.41202400000000e+00 6.14178000000000e-01
287 1 2.13300000000000e+01 -7.41202400000000e+00 -6.14178000000000e-01
288 1 1.99100000000000e+01 -7.41202400000000e+00 -6.14178000000000e-01
289 1 1.92000000000000e+01 -7.20984400000000e+00 -1.82578000000000e+00
290 1 1.77800000000000e+01 -7.20984400000000e+00 -1.82578000000000e+00
291 1 2.13300000000000e+01 -6.81099700000000e+00 -2.98758000000000e+00
292 1 1.99100000000000e+01 -6.81099700000000e+00 -2.98758000000000e+00
293 1 1.92000000000000e+01 -6.22636400000000e+00 -4.06788700000000e+00
294 1 1.77800000000000e+01 -6.22636400000000e+00 -4.06788700000000e+00
295 1 2.13300000000000e+01 -5.47189300000000e+00 -5.03723200000000e+00
296 1 1.99100000000000e+01 -5.47189300000000e+00 -5.03723200000000e+00
297 1 1.92000000000000e+01 -4.56816200000000e+00 -5.86917500000000e+00
298 1 1.77800000000000e+01 -4.56816200000000e+00 -5.86917500000000e+00
299 1 2.13300000000000e+01 -3.53982400000000e+00 -6.54102200000000e+00
300 1 1.99100000000000e+01 -3.53982400000000e+00 -6.54102200000000e+00
301 1 1.92000000000000e+01 -2.41492900000000e+00 -7.03444700000000e+00
302 1 1.77800000000000e+01 -2.41492900000000e+00 -7.03444700000000e+00
303 1 2.13300000000000e+01 -1.22416000000000e+00 -7.33599000000000e+00
304 1 1.99100000000000e+01 -1.22416000000000e+00 -7.33599000000000e+00
305 1 2.34600000000000e+01 0.00000000000000e+00 -7.43742700000000e+00
306 1 2.20400000000000e+01 -0.00000000000000e+00 -7.43742700000000e+00
307 1 2.55900000000000e+01 1.22416000000000e+00 -7.33599000000000e+00
308 1 2.41700000000000e+01 1.22416000000000e+00 -7.33599000000000e+00
309 1 2.34600000000000e+01 2.41492900000000e+00 -7.03444700000000e+00
310 1 2.20400000000000e+01 2.41492900000000e+00 -7.03444700000000e+00
311 1 2.55900000000000e+01 3.53982400000000e+00 -6.54102200000000e+00
312 1 2.41700000000000e+01 3.53982400000000e+00 -6.54102200000000e+00
313 1 2.34600000000000e+01 4.56816200000000e+00 -5.86917500000000e+00
314 1 2.20400000000000e+01 4.56816200000000e+00 -5.86917500000000e+00
315 1 2.55900000000000e+01 5.47189300000000e+00 -5.03723200000000e+00
316 1 2.41700000000000e+01 5.47189300000000e+00 -5.03723200000000e+00
317 1 2.34600000000000e+01 6.22636400000000e+00 -4.06788700000000e+00
318 1 2.20400000000000e+01 6.22636400000000e+00 -4.06788700000000e+00
319 1 2.55900000000000e+01 6.81099700000000e+00 -2.98758000000000e+00
320 1 2.41700000000000e+01 6.81099700000000e+00 -2.98758000000000e+00
321 1 2.34600000000000e+01 7.20984400000000e+00 -1.82578000000000e+00
322 1 2.20400000000000e+01 7.20984400000000e+00 -1.82578000000000e+00
323 1 2.55900000000000e+01 7.41202400000000e+00 -6.14178000000000e-01
324 1 2.41700000000000e+01 7.41202400000000e+00 -6.14178000000000e-01
325 1 2.34600000000000e+01 7.41202400000000e+00 6.14178000000000e-01
326 1 2.20400000000000e+01 7.41202400000000e+00 6.14178000000000e-01
327 1 2.55900000000000e+01 7.20984400000000e+00 1.82578000000000e+00
328 1 2.41700000000000e+01 7.20984400000000e+00 1.82578000000000e+00
329 1 2.34600000000000e+01 6.81099700000000e+00 2.98758000000000e+00
330 1 2.20400000000000e+01 6.81099700000000e+00 2.98758000000000e+00
331 1 2.55900000000000e+01 6.22636400000000e+00 4.06788700000000e+00
332 1 2.41700000000000e+01 6.22636400000000e+00 4.06788700000000e+00
333 1 2.34600000000000e+01 5.47189300000000e+00 5.03723200000000e+00
334 1 2.20400000000000e+01 5.47189300000000e+00 5.03723200000000e+00
335 1 2.55900000000000e+01 4.56816200000000e+00 5.86917500000000e+00
336 1 2.41700000000000e+01 4.56816200000000e+00 5.86917500000000e+00
337 1 2.34600000000000e+01 3.53982400000000e+00 6.54102200000000e+00
338 1 2.20400000000000e+01 3.53982400000000e+00 6.54102200000000e+00
339 1 2.55900000000000e+01 2.41492900000000e+00 7.03444700000000e+00
340 1 2.41700000000000e+01 2.41492900000000e+00 7.03444700000000e+00
341 1 2.34600000000000e+01 1.22416000000000e+00 7.33599000000000e+00
342 1 2.20400000000000e+01 1.22416000000000e+00 7.33599000000000e+00
343 1 2.55900000000000e+01 -0.00000000000000e+00 7.43742700000000e+00
344 1 2.41700000000000e+01 -0.00000000000000e+00 7.43742700000000e+00
345 1 2.34600000000000e+01 -1.22416000000000e+00 7.33599000000000e+00
346 1 2.20400000000000e+01 -1.22416000000000e+00 7.33599000000000e+00
347 1 2.55900000000000e+01 -2.41492900000000e+00 7.03444700000000e+00
348 1 2.41700000000000e+01 -2.41492900000000e+00 7.03444700000000e+00
349 1 2.34600000000000e+01 -3.53982400000000e+00 6.54102200000000e+00
350 1 2.20400000000000e+01 -3.53982400000000e+00 6.54102200000000e+00
351 1 2.55900000000000e+01 -4.56816200000000e+00 5.86917500000000e+00
352 1 2.41700000000000e+01 -4.56816200000000e+00 5.86917500000000e+00
353 1 2.34600000000000e+01 -5.47189300000000e+00 5.03723200000000e+00
354 1 2.20400000000000e+01 -5.47189300000000e+00 5.03723200000000e+00
355 1 2.55900000000000e+01 -6.22636400000000e+00 4.06788700000000e+00
356 1 2.41700000000000e+01 -6.22636400000000e+00 4.06788700000000e+00
357 1 2.34600000000000e+01 -6.81099700000000e+00 2.98758000000000e+00
358 1 2.20400000000000e+01 -6.81099700000000e+00 2.98758000000000e+00
359 1 2.55900000000000e+01 -7.20984400000000e+00 1.82578000000000e+00
360 1 2.41700000000000e+01 -7.20984400000000e+00 1.82578000000000e+00
361 1 2.34600000000000e+01 -7.41202400000000e+00 6.14178000000000e-01
362 1 2.20400000000000e+01 -7.41202400000000e+00 6.14178000000000e-01
363 1 2.55900000000000e+01 -7.41202400000000e+00 -6.14178000000000e-01
364 1 2.41700000000000e+01 -7.41202400000000e+00 -6.14178000000000e-01
365 1 2.34600000000000e+01 -7.20984400000000e+00 -1.82578000000000e+00
366 1 2.20400000000000e+01 -7.20984400000000e+00 -1.82578000000000e+00
367 1 2.55900000000000e+01 -6.81099700000000e+00 -2.98758000000000e+00
368 1 2.41700000000000e+01 -6.81099700000000e+00 -2.98758000000000e+00
369 1 2.34600000000000e+01 -6.22636400000000e+00 -4.06788700000000e+00
370 1 2.20400000000000e+01 -6.22636400000000e+00 -4.06788700000000e+00
371 1 2.55900000000000e+01 -5.47189300000000e+00 -5.03723200000000e+00
372 1 2.41700000000000e+01 -5.47189300000000e+00 -5.03723200000000e+00
373 1 2.34600000000000e+01 -4.56816200000000e+00 -5.86917500000000e+00
374 1 2.20400000000000e+01 -4.56816200000000e+00 -5.86917500000000e+00
375 1 2.55900000000000e+01 -3.53982400000000e+00 -6.54102200000000e+00
376 1 2.41700000000000e+01 -3.53982400000000e+00 -6.54102200000000e+00
377 1 2.34600000000000e+01 -2.41492900000000e+00 -7.03444700000000e+00
378 1 2.20400000000000e+01 -2.41492900000000e+00 -7.03444700000000e+00
379 1 2.55900000000000e+01 -1.22416000000000e+00 -7.33599000000000e+00
380 1 2.41700000000000e+01 -1.22416000000000e+00 -7.33599000000000e+00
381 1 2.77200000000000e+01 -0.00000000000000e+00 -7.43742700000000e+00
382 1 2.63000000000000e+01 -0.00000000000000e+00 -7.43742700000000e+00
383 1 2.98500000000000e+01 1.22416000000000e+00 -7.33599000000000e+00
384 1 2.84300000000000e+01 1.22416000000000e+00 -7.33599000000000e+00
385 1 2.77200000000000e+01 2.41492900000000e+00 -7.03444700000000e+00
386 1 2.63000000000000e+01 2.41492900000000e+00 -7.03444700000000e+00
387 1 2.98500000000000e+01 3.53982400000000e+00 -6.54102200000000e+00
388 1 2.84300000000000e+01 3.53982400000000e+00 -6.54102200000000e+00
389 1 2.77200000000000e+01 4.56816200000000e+00 -5.86917500000000e+00
390 1 2.63000000000000e+01 4.56816200000000e+00 -5.86917500000000e+00
391 1 2.98500000000000e+01 5.47189300000000e+00 -5.03723200000000e+00
392 1 2.84300000000000e+01 5.47189300000000e+00 -5.03723200000000e+00
393 1 2.77200000000000e+01 6.22636400000000e+00 -4.06788700000000e+00
394 1 2.63000000000000e+01 6.22636400000000e+00 -4.06788700000000e+00
395 1 2.98500000000000e+01 6.81099700000000e+00 -2.98758000000000e+00
396 1 2.84300000000000e+01 6.81099700000000e+00 -2.98758000000000e+00
397 1 2.77200000000000e+01 7.20984400000000e+00 -1.82578000000000e+00
398 1 2.63000000000000e+01 7.20984400000000e+00 -1.82578000000000e+00
399 1 2.98500000000000e+01 7.41202400000000e+00 -6.14178000000000e-01
400 1 2.84300000000000e+01 7.41202400000000e+00 -6.14178000000000e-01
401 1 2.77200000000000e+01 7.41202400000000e+00 6.14178000000000e-01
402 1 2.63000000000000e+01 7.41202400000000e+00 6.14178000000000e-01
403 1 2.98500000000000e+01 7.20984400000000e+00 1.82578000000000e+00
404 1 2.84300000000000e+01 7.20984400000000e+00 1.82578000000000e+00
405 1 2.77200000000000e+01 6.81099700000000e+00 2.98758000000000e+00
406 1 2.63000000000000e+01 6.81099700000000e+00 2.98758000000000e+00
407 1 2.98500000000000e+01 6.22636400000000e+00 4.06788700000000e+00
408 1 2.84300000000000e+01 6.22636400000000e+00 4.06788700000000e+00
409 1 2.77200000000000e+01 5.47189300000000e+00 5.03723200000000e+00
410 1 2.63000000000000e+01 5.47189300000000e+00 5.03723200000000e+00
411 1 2.98500000000000e+01 4.56816200000000e+00 5.86917500000000e+00
412 1 2.84300000000000e+01 4.56816200000000e+00 5.86917500000000e+00
413 1 2.77200000000000e+01 3.53982400000000e+00 6.54102200000000e+00
414 1 2.63000000000000e+01 3.53982400000000e+00 6.54102200000000e+00
415 1 2.98500000000000e+01 2.41492900000000e+00 7.03444700000000e+00
416 1 2.84300000000000e+01 2.41492900000000e+00 7.03444700000000e+00
417 1 2.77200000000000e+01 1.22416000000000e+00 7.33599000000000e+00
418 1 2.63000000000000e+01 1.22416000000000e+00 7.33599000000000e+00
419 1 2.98500000000000e+01 0.00000000000000e+00 7.43742700000000e+00
420 1 2.84300000000000e+01 -0.00000000000000e+00 7.43742700000000e+00
421 1 2.77200000000000e+01 -1.22416000000000e+00 7.33599000000000e+00
422 1 2.63000000000000e+01 -1.22416000000000e+00 7.33599000000000e+00
423 1 2.98500000000000e+01 -2.41492900000000e+00 7.03444700000000e+00
424 1 2.84300000000000e+01 -2.41492900000000e+00 7.03444700000000e+00
425 1 2.77200000000000e+01 -3.53982400000000e+00 6.54102200000000e+00
426 1 2.63000000000000e+01 -3.53982400000000e+00 6.54102200000000e+00
427 1 2.98500000000000e+01 -4.56816200000000e+00 5.86917500000000e+00
428 1 2.84300000000000e+01 -4.56816200000000e+00 5.86917500000000e+00